LAMMPS data file for polystyrene using coarse-grain model

3200   atoms
3590   bonds
3580   angles
770   dihedrals
1590   impropers

4  atom types
3  bond types
3  angle types
1  dihedral types
3  improper types

0.000000 51.720300 xlo xhi
0.000000 51.720300 ylo yhi
0.000000 51.720300 zlo zhi

Masses

  1     14.026800   # CH2
  2     13.018900   # CH
  3     12.011000   # CAR
  4     13.018900   # CAH

Atoms

     1   1   1   -0.27018     14.57338500     25.28265600      1.00091700
     2   1   2   -0.05719     13.91316600     25.71993300      2.32171100
     3   1   1   -0.23861     14.66754800     26.88723000      2.98498100
     4   1   3    0.01437     13.86976700     24.59771300      3.33108700
     5   1   4   -0.02366     14.77907600     23.53726100      3.23835900
     6   1   4   -0.03167     14.77071100     22.52169400      4.20197400
     7   1   4   -0.03230     13.85303700     22.56657900      5.25831700
     8   1   4   -0.03167     12.94372800     23.62703100      5.35104500
     9   1   4   -0.02366     12.95209300     24.64259800      4.38743000
    10   1   2   -0.05109     14.59108400     28.17534200      2.14443400
    11   1   1   -0.23810     15.34546600     29.34263900      2.80770400
    12   1   3    0.01491     13.16700000     28.63444100      1.94117500
    13   1   4   -0.02364     12.16963900     28.24178000      2.84178000
    14   1   4   -0.03167     10.85890900     28.70672000      2.68110200
    15   1   4   -0.03230     10.54554000     29.56432100      1.61982000
    16   1   4   -0.03167     11.54290100     29.95698100      0.71921500
    17   1   4   -0.02364     12.85363100     29.49204100      0.87989300
    18   1   2   -0.05107     16.32838200     30.02096800      1.83541500
    19   1   1   -0.23810     17.08276500     31.18826500      2.49868500
    20   1   3    0.01491     17.37398300     29.05850800      1.32503400
    21   1   4   -0.02364     17.11876700     27.68196800      1.32701500
    22   1   4   -0.03167     18.06842500     26.79322200      0.80905700
    23   1   4   -0.03230     19.27329900     27.28101600      0.28911800
    24   1   4   -0.03167     19.52851500     28.65755500      0.28713700
    25   1   4   -0.02364     18.57885700     29.54630100      0.80509500
    26   1   2   -0.05107     16.39475300     31.65804500      3.79388600
    27   1   1   -0.23810     17.14913500     32.82534200      4.45715500
    28   1   3    0.01491     14.98400000     32.13498200      3.54407100
    29   1   4   -0.02364     14.28295100     31.68763300      2.41783400
    30   1   4   -0.03167     12.95836600     32.09140300      2.21181400
    31   1   4   -0.03230     12.33483000     32.94252200      3.13203100
    32   1   4   -0.03167     13.03587900     33.38987200      4.25826800
    33   1   4   -0.02364     14.36046400     32.98610200      4.46428800
    34   1   2   -0.05107     18.58780700     32.95939900      3.92437700
    35   1   1   -0.23810     19.34218900     34.12669600      4.58764600
    36   1   3    0.01491     19.40256800     31.71320400      4.17589300
    37   1   4   -0.02364     18.76083700     30.48270900      4.36045800
    38   1   4   -0.03167     19.51749400     29.31938500      4.54524800
    39   1   4   -0.03230     20.91588100     29.38655500      4.54547300
    40   1   4   -0.03167     21.55761200     30.61705000      4.36090800
    41   1   4   -0.02364     20.80095600     31.78037400      4.17611800
    42   1   2   -0.05107     20.17506200     34.92788200      3.56979500
    43   1   1   -0.23810     20.92944400     36.09517900      4.23306400
    44   1   3    0.01491     19.31595000     35.52502300      2.48101100
    45   1   4   -0.02364     17.95320900     35.75057600      2.70918700
    46   1   4   -0.03167     17.16700700     36.34886300      1.71725000
    47   1   4   -0.03230     17.74354400     36.72159600      0.49713800
    48   1   4   -0.03167     19.10628500     36.49604300      0.26896200
    49   1   4   -0.02364     19.89248800     35.89775700      1.26089900
    50   1   2   -0.05107     21.97439300     35.60237600      5.25131100
    51   1   1   -0.23810     22.72877500     36.76967300      5.91458100
    52   1   3    0.01491     23.01590100     34.71719100      4.60958800
    53   1   4   -0.02364     23.26450100     34.81203800      3.23510500
    54   1   4   -0.03167     24.26367800     34.02612800      2.64859700
    55   1   4   -0.03230     25.01425400     33.14537200      3.43657100
    56   1   4   -0.03167     24.76565400     33.05052500      4.81105400
    57   1   4   -0.02364     23.76647700     33.83643500      5.39756200
    58   1   2   -0.05107     21.80230900     37.62977600      6.79405900
    59   1   1   -0.23810     22.55669100     38.79707300      7.45732900
    60   1   3    0.01491     21.17352700     36.82671800      7.90753500
    61   1   4   -0.02364     21.78701900     35.65052100      8.35496100
    62   1   4   -0.03167     21.23023400     34.93193200      9.41967700
    63   1   4   -0.03230     20.05995700     35.38954000     10.03696800
    64   1   4   -0.03167     19.44646500     36.56573600      9.58954200
    65   1   4   -0.02364     20.00325000     37.28432500      8.52482600
    66   1   2   -0.05107     23.01758900     39.84537400      6.42765000
    67   1   1   -0.23810     23.77197100     41.01267100      7.09092000
    68   1   3    0.01491     21.85554300     40.44754500      5.67456300
    69   1   4   -0.02364     20.57337700     40.43137200      6.23651200
    70   1   4   -0.03167     19.50508100     41.03258000      5.56027700
    71   1   4   -0.03230     19.71895200     41.64996000      4.32209300
    72   1   4   -0.03167     21.00111900     41.66613300      3.76014300
    73   1   4   -0.02364     22.06941400     41.06492600      4.43637800
    74   1   2   -0.05107     25.12420300     41.28821900      6.40744200
    75   1   1   -0.23810     25.87858500     42.45551600      7.07071200
    76   1   3    0.01491     26.04008400     40.08890800      6.46143700
    77   1   4   -0.02364     25.50400200     38.80528700      6.61933800
    78   1   4   -0.03167     26.34903100     37.68907700      6.62069700
    79   1   4   -0.03230     27.73014200     37.85648900      6.46415600
    80   1   4   -0.03167     28.26622400     39.14011000      6.30625500
    81   1   4   -0.02364     27.42119500     40.25632000      6.30489500
    82   1   2   -0.05107     24.94251800     43.34432300      7.91059300
    83   1   1   -0.23810     25.69690100     44.51161900      8.57386200
    84   1   3    0.01491     23.84141000     43.95345100      7.07595300
    85   1   4   -0.02364     23.45452100     43.34501300      5.87590300
    86   1   4   -0.03167     22.40111100     43.88230400      5.12647200
    87   1   4   -0.03230     21.73459100     45.02803200      5.57709100
    88   1   4   -0.03167     22.12148000     45.63647000      6.77714100
    89   1   4   -0.02364     23.17489000     45.09917900      7.52657200
    90   1   2   -0.05107     27.21694700     44.26774600      8.61365500
    91   1   1   -0.23810     27.97133000     45.43504200      9.27692500
    92   1   3    0.01491     27.56979100     43.02173300      9.39022100
    93   1   4   -0.02364     26.62174700     42.00388300      9.54894200
    94   1   4   -0.03167     26.96411000     40.82794200     10.22713900
    95   1   4   -0.03230     28.25451800     40.66985200     10.74661500
    96   1   4   -0.03167     29.20256200     41.68770300     10.58789400
    97   1   4   -0.02364     28.86019900     42.86364300      9.90969700
    98   1   2   -0.05107     27.11881900     46.71641400      9.33089200
    99   1   1   -0.23810     27.87320200     47.88371100      9.99416200
   100   1   3    0.01491     26.71316900     47.18435900      7.95373000
   101   1   4   -0.02364     26.67157000     46.27551400      6.88964700
   102   1   4   -0.03167     26.24888500     46.69861300      5.62381800
   103   1   4   -0.03230     25.86780000     48.03055600      5.42207000
   104   1   4   -0.03167     25.90939900     48.93940000      6.48615300
   105   1   4   -0.02364     26.33208400     48.51630200      7.75198200
   106   1   2   -0.05107     28.45198700     47.49114400     11.36620300
   107   1   1   -0.23810     29.20636900     48.65844000     12.02947300
   108   1   3    0.01491     29.42771500     46.34353000     11.26114600
   109   1   4   -0.02364     30.07832300     46.08666900     10.04840900
   110   1   4   -0.03167     31.01906400     45.05329500      9.96387800
   111   1   4   -0.03230     31.30919800     44.27678300     11.09208500
   112   1   4   -0.03167     30.65859000     44.53364400     12.30482300
   113   1   4   -0.02364     29.71784900     45.56701800     12.38935300
   114   1   2   -0.05107     30.28519700     48.16450300     13.01118400
   115   1   1   -0.23810     31.03958000     49.33180000     13.67445300
   116   1   3    0.01491     29.69722900     47.33388600     14.12674100
   117   1   4   -0.02364     28.46664200     46.69097400     13.94695700
   118   1   4   -0.03167     27.94466600     45.88161900     14.96306900
   119   1   4   -0.03230     28.65327500     45.71517600     16.15896600
   120   1   4   -0.03167     29.88386100     46.35808800     16.33875100
   121   1   4   -0.02364     30.40583800     47.16744300     15.32263800
   122   1   2   -0.05107     32.52588600     49.36079700     13.27239300
   123   1   1   -0.23810     33.28026800     50.52809400     13.93566200
   124   1   3    0.01491     33.24433300     48.09367100     13.67029100
   125   1   4   -0.02364     32.52148600     46.91045300     13.86391100
   126   1   4   -0.03167     33.19279600     45.72467800     14.18528300
   127   1   4   -0.03230     34.58695300     45.72212000     14.31303500
   128   1   4   -0.03167     35.30980000     46.90533800     14.11941500
   129   1   4   -0.02364     34.63849000     48.09111300     13.79804300
   130   1   2   -0.05107     32.68626700      0.17415600     13.54603000
   131   1   1   -0.23810     33.44065000      1.34145300     14.20929900
   132   1   3    0.01491     31.23865100      0.29952700     13.95686900
   133   1   4   -0.02364     30.73507300     51.22900800     14.99658700
   134   1   4   -0.03167     29.40600200     51.37961000     15.40997600
   135   1   4   -0.03230     28.58051000      0.60073100     14.78364700
   136   1   4   -0.03167     29.08408800      1.39155100     13.74393000
   137   1   4   -0.02364     30.41315900      1.24094800     13.33054100
   138   1   2   -0.05107     34.87932100      1.47551000     13.67652100
   139   1   1   -0.23810     35.63370300      2.64280600     14.33979000
   140   1   3    0.01491     34.91018400      1.72487000     12.18757300
   141   1   4   -0.02364     33.79662800      2.28246100     11.54797500
   142   1   4   -0.03167     33.84273500      2.55864700     10.17626300
   143   1   4   -0.03230     35.00239800      2.27724300      9.44414800
   144   1   4   -0.03167     36.11595400      1.71965200     10.08374500
   145   1   4   -0.02364     36.06984800      1.44346500     11.45545700
   146   1   2   -0.05107     36.99177700      2.19946900     14.91484500
   147   1   1   -0.23810     37.74615900      3.36676600     15.57811400
   148   1   3    0.01491     36.83791200      1.12544800     15.96503700
   149   1   4   -0.02364     35.69514300      0.31678500     15.97707800
   150   1   4   -0.03167     35.57454300     51.00968300     16.92042300
   151   1   4   -0.03230     36.59671200     50.79094300     17.85172600
   152   1   4   -0.03167     37.73948000     51.59960600     17.83968400
   153   1   4   -0.02364     37.86008000      0.90670800     16.89633900
   154   1   2   -0.05107     37.19961600      4.73525700     15.13076300
   155   1   1   -0.23810     37.95399800      5.90255300     15.79403200
   156   1   3    0.01491     37.31707600      4.93076900     13.63808800
   157   1   4   -0.02364     37.39847200      3.81926300     12.79078200
   158   1   4   -0.03167     37.45842800      3.99934000     11.40370700
   159   1   4   -0.03230     37.43698800      5.29092500     10.86393800
   160   1   4   -0.03167     37.35559200      6.40243100     11.71124400
   161   1   4   -0.02364     37.29563600      6.22235300     13.09831900
   162   1   2   -0.05107     36.99697300      7.00979100     16.27333100
   163   1   1   -0.23810     37.75135600      8.17708800     16.93660100
   164   1   3    0.01491     36.00339700      6.49818000     17.28879200
   165   1   4   -0.02364     36.29749400      5.35494800     18.04147200
   166   1   4   -0.03167     35.39796000      4.90856500     19.01696200
   167   1   4   -0.03230     34.20432800      5.60541400     19.23977100
   168   1   4   -0.03167     33.91023000      6.74864600     18.48709000
   169   1   4   -0.02364     34.80976500      7.19502900     17.51160100
   170   1   2   -0.05107     38.67945100      8.90216900     15.94438400
   171   1   1   -0.23810     39.43383400     10.06946600     16.60765300
   172   1   3    0.01491     37.91713700      9.48154200     14.77677800
   173   1   4   -0.02364     36.55223200      9.76598300     14.90377600
   174   1   4   -0.03167     35.85634100     10.34812000     13.83754300
   175   1   4   -0.03230     36.52535300     10.64581500     12.64431300
   176   1   4   -0.03167     37.89025800     10.36137400     12.51731500
   177   1   4   -0.02364     38.58615000      9.77923700     13.58354700
   178   1   2   -0.05107     40.95494800      9.97253900     16.38761800
   179   1   1   -0.23810     41.70933000     11.13983600     17.05088800
   180   1   3    0.01491     41.52936000      8.69901900     16.96059000
   181   1   4   -0.02364     40.70569300      7.58301200     17.15059500
   182   1   4   -0.03167     41.24813600      6.38720600     17.63618900
   183   1   4   -0.03230     42.61424700      6.30740600     17.93178000
   184   1   4   -0.03167     43.43791400      7.42341300     17.74177500
   185   1   4   -0.02364     42.89547100      8.61921900     17.25618100
   186   1   2   -0.05107     40.78017700     12.33059500     17.35149600
   187   1   1   -0.23810     41.53455900     13.49789100     18.01476600
   188   1   3    0.01491     40.14041000     12.87924000     16.09858500
   189   1   4   -0.02364     40.00985700     12.06687500     14.96588100
   190   1   4   -0.03167     39.37320700     12.55977000     13.82057300
   191   1   4   -0.03230     38.86710900     13.86503100     13.80796900
   192   1   4   -0.03167     38.99766200     14.67739700     14.94067300
   193   1   4   -0.02364     39.63431300     14.18450100     16.08598100
   194   1   2   -0.05107     41.04675300     13.75745700     19.45221900
   195   1   1   -0.23810     41.80113500     14.92475400     20.11548800
   196   1   3    0.01491     39.57786500     14.10452500     19.49708400
   197   1   4   -0.02364     38.73143300     13.70214200     18.45706400
   198   1   4   -0.03167     37.36113100     13.98155000     18.52190800
   199   1   4   -0.03230     36.83726200     14.66334000     19.62677200
   200   1   4   -0.03167     37.68369400     15.06572200     20.66679100
   201   1   4   -0.02364     39.05399600     14.78631500     20.60194700
   202   1   2   -0.05107     42.62482700     14.46241000     21.33178200
   203   1   1   -0.23810     43.37920900     15.62970700     21.99505200
   204   1   3    0.01491     41.75685400     13.84008800     22.39922600
   205   1   4   -0.02364     40.51181200     13.29690000     22.06037900
   206   1   4   -0.03167     39.72840300     12.67667400     23.04098600
   207   1   4   -0.03230     40.19003500     12.59963600     24.36044000
   208   1   4   -0.03167     41.43507700     13.14282500     24.69928800
   209   1   4   -0.02364     42.21848600     13.76305100     23.71868100
   210   1   2   -0.05107     44.90650900     15.46832000     21.88142600
   211   1   1   -0.23810     45.66089100     16.63561600     22.54469600
   212   1   3    0.01491     45.39226300     14.20128500     22.54382100
   213   1   4   -0.02364     44.51510900     13.12518800     22.72442100
   214   1   4   -0.03167     44.97771700     11.93305800     23.29435000
   215   1   4   -0.03230     46.31747800     11.81702400     23.68367800
   216   1   4   -0.03167     47.19463200     12.89312100     23.50307700
   217   1   4   -0.02364     46.73202400     14.08525200     22.93314800
   218   1   2   -0.05107     44.76118700     17.87122100     22.73288500
   219   1   1   -0.23810     45.51557000     19.03851700     23.39615500
   220   1   3    0.01491     44.22640600     18.38704100     21.41833700
   221   1   4   -0.02364     44.13850900     17.53094000     20.31408800
   222   1   4   -0.03167     43.59764100     17.99571500     19.10932900
   223   1   4   -0.03230     43.14467000     19.31659200     19.00881800
   224   1   4   -0.03167     43.23256700     20.17269300     20.11306600
   225   1   4   -0.02364     43.77343500     19.70791800     21.31782600
   226   1   2   -0.05107     47.02684500     18.76233500     23.50278600
   227   1   1   -0.23810     47.78122700     19.92963100     24.16605500
   228   1   3    0.01491     47.65929900     18.54624800     22.14875200
   229   1   4   -0.02364     47.05030600     19.06671900     21.00060700
   230   1   4   -0.03167     47.66148800     18.90830000     19.75106300
   231   1   4   -0.03230     48.88166300     18.22941000     19.64966400
   232   1   4   -0.03167     49.49065600     17.70893900     20.79780900
   233   1   4   -0.02364     48.87947400     17.86735700     22.04735300
   234   1   2   -0.05107     47.51354700     20.00299800     25.68083700
   235   1   1   -0.23810     48.26792900     21.17029500     26.34410700
   236   1   3    0.01491     47.94437300     18.74314700     26.39306300
   237   1   4   -0.02364     48.91688200     17.91376800     25.82178700
   238   1   4   -0.03167     49.35150500     16.77146400     26.50460700
   239   1   4   -0.03230     48.81362000     16.45853900     27.75870300
   240   1   4   -0.03167     47.84111100     17.28791900     28.32997900
   241   1   4   -0.02364     47.40648800     18.43022300     27.64715900
   242   1   2   -0.05107     47.32761800     22.07325000     27.16391700
   243   1   1   -0.23810     48.08200000     23.24054600     27.82718600
   244   1   3    0.01491     46.24226500     22.68337500     26.30960200
   245   1   4   -0.02364     45.86664900     22.06754400     25.10974200
   246   1   4   -0.03167     44.82732000     22.60621400     24.34186800
   247   1   4   -0.03230     44.16360700     23.76071600     24.77385400
   248   1   4   -0.03167     44.53922300     24.37654700     25.97371500
   249   1   4   -0.02364     45.57855200     23.83787700     26.74158800
   250   1   2   -0.05107     47.64642300     23.45250800     29.28901600
   251   1   1   -0.23810     48.40080500     24.61980400     29.95228500
   252   1   3    0.01491     47.89997400     22.22963900     30.13778200
   253   1   4   -0.02364     48.86996600     21.29745300     29.75029900
   254   1   4   -0.03167     49.13914600     20.18890600     30.56188100
   255   1   4   -0.03230     48.43833300     20.01254500     31.76094600
   256   1   4   -0.03167     47.46834000     20.94473100     32.14843000
   257   1   4   -0.02364     47.19916100     22.05327800     31.33684800
   258   1   2   -0.05107     47.54414000     25.32938300     31.01728400
   259   1   1   -0.23810     48.29852200     26.49668000     31.68055300
   260   1   3    0.01491     46.27633400     25.90436500     30.43233500
   261   1   4   -0.02364     45.75076400     25.37746100     29.24652400
   262   1   4   -0.03167     44.54953600     25.87786100     28.73014000
   263   1   4   -0.03230     43.87387900     26.90516500     29.39956800
   264   1   4   -0.03167     44.39944900     27.43206900     30.58537900
   265   1   4   -0.02364     45.60067700     26.93166900     31.10176300
   266   1   2   -0.05107     48.57601100     26.23105400     33.17187600
   267   1   1   -0.23810     49.33039300     27.39835000     33.83514500
   268   1   3    0.01491     47.30202300     26.03127900     33.95746200
   269   1   4   -0.02364     46.13513900     25.61580300     33.30495800
   270   1   4   -0.03167     44.96668500     25.38372900     34.04038900
   271   1   4   -0.03230     44.96511600     25.56713100     35.42832300
   272   1   4   -0.03167     46.13200000     25.98260800     36.08082600
   273   1   4   -0.02364     47.30045400     26.21468100     35.34539600
   274   1   2   -0.05107     49.98181900     28.32917000     32.79552200
   275   1   1   -0.23810     50.73620200     29.49646700     33.45879100
   276   1   3    0.01491     50.98046400     27.59904800     31.92965100
   277   1   4   -0.02364     50.88518500     26.21156600     31.76898300
   278   1   4   -0.03167      0.06093700     25.54112700     30.92779200
   279   1   4   -0.03230      1.05226800     26.25817100     30.24727000
   280   1   4   -0.03167      1.14754600     27.64565300     30.40793800
   281   1   4   -0.02364      0.25149400     28.31609200     31.24912900
   282   1   2   -0.05107     50.11189000     30.85999700     33.10862000
   283   1   1   -0.23810     50.86627200     32.02729400     33.77189000
   284   1   3    0.01491     50.12213900     31.12164200     31.62149600
   285   1   4   -0.02364     50.18679700     30.05022800     30.72266900
   286   1   4   -0.03167     50.14732700     30.28984600     29.34389200
   287   1   4   -0.03230     50.04319900     31.60087900     28.86394300
   288   1   4   -0.03167     49.97854100     32.67229300     29.76277000
   289   1   4   -0.02364     50.01801100     32.43267500     31.14154700
   290   1   2   -0.05107     49.90416600     33.06323400     34.38244500
   291   1   1   -0.23810     50.65854800     34.23053100     35.04571500
   292   1   3    0.01491     49.01834800     32.45588400     35.44383700
   293   1   4   -0.02364     49.42086900     31.29196100     36.10961400
   294   1   4   -0.03167     48.62268400     30.75608700     37.12732800
   295   1   4   -0.03230     47.42197800     31.38413700     37.47926300
   296   1   4   -0.03167     47.01945700     32.54806000     36.81348600
   297   1   4   -0.02364     47.81764200     33.08393300     35.79577200
   298   1   2   -0.05107     49.86566700     35.54842200     34.96759100
   299   1   1   -0.23814     50.62005000     36.71571800     35.63086000
   300   1   3    0.01491     49.59124700     35.95973400     33.54084000
   301   1   4   -0.02364     49.59013500     34.99840700     32.52307300
   302   1   4   -0.03167     49.28794800     35.37161000     31.20800500
   303   1   4   -0.03230     48.98687400     36.70613800     30.91070500
   304   1   4   -0.03167     48.98798700     37.66746500     31.92847200
   305   1   4   -0.02364     49.29017300     37.29426200     33.24354000
   306   1   2   -0.05208     49.68398300     37.60452500     36.47074200
   307   1   1   -0.24895     50.43836500     38.77182200     37.13401100
   308   1   3    0.01487     49.01392700     36.83024100     37.58052100
   309   1   4   -0.02364     49.59741100     35.65300500     38.06390600
   310   1   4   -0.03167     49.00189200     34.96125900     39.12543600
   311   1   4   -0.03230     47.82288900     35.44675000     39.70357900
   312   1   4   -0.03167     47.23940500     36.62398600     39.22019400
   313   1   4   -0.02364     47.83492400     37.31573100     38.15866400
   314   1   2   -0.09341     50.96349500     39.78249900     36.09749200
   315   1   3    0.00290     49.84619700     40.39027600     35.28364300
   316   1   4   -0.02480     48.54286300     40.41702000     35.79413800
   317   1   4   -0.03171     47.51616900     41.02377400     35.06082600
   318   1   4   -0.03231     47.79280800     41.60378500     33.81701800
   319   1   4   -0.03171     49.09614200     41.57704200     33.30652300
   320   1   4   -0.02480     50.12283600     40.97028800     34.03983500
   321   2   1   -0.27018     26.95381800     18.06187700     37.50225300
   322   2   2   -0.05719     25.42900900     17.95050100     37.68706400
   323   2   1   -0.23861     25.04521900     17.65318600     39.14853900
   324   2   3    0.01437     24.83650800     16.84523200     36.84598000
   325   2   4   -0.02366     25.64087800     15.78109200     36.42101700
   326   2   4   -0.03167     25.08092200     14.73187000     35.68238200
   327   2   4   -0.03230     23.71659600     14.74678700     35.36871000
   328   2   4   -0.03167     22.91222500     15.81092800     35.79367300
   329   2   4   -0.02366     23.47218100     16.86015000     36.53230800
   330   2   2   -0.05109     24.01440100     18.66069900     39.69069500
   331   2   1   -0.23810     23.63061000     18.36338400     41.15217000
   332   2   3    0.01491     24.53540500     20.07752200     39.65510300
   333   2   4   -0.02364     25.55766400     20.42526000     38.76400000
   334   2   4   -0.03167     26.00724200     21.74940200     38.69671100
   335   2   4   -0.03230     25.43456100     22.72580600     39.52052600
   336   2   4   -0.03167     24.41230200     22.37806800     40.41163000
   337   2   4   -0.02364     23.96272400     21.05392600     40.47891900
   338   2   2   -0.05107     22.11462500     18.49528900     41.38878900
   339   2   1   -0.23810     21.73083400     18.19797500     42.85026400
   340   2   3    0.01491     21.32244100     17.54213300     40.52621200
   341   2   4   -0.02364     21.92648900     16.38116300     40.02894500
   342   2   4   -0.03167     21.17873100     15.47317600     39.26972400
   343   2   4   -0.03230     19.82692400     15.72615800     39.00777100
   344   2   4   -0.03167     19.22287600     16.88712800     39.50503800
   345   2   4   -0.02364     19.97063500     17.79511600     40.26425900
   346   2   2   -0.05107     20.27882400     17.70043100     42.97563200
   347   2   1   -0.23810     19.89503400     17.40311600     44.43710700
   348   2   3    0.01491     19.28658100     18.71564400     42.46095300
   349   2   4   -0.02364     19.69214700     19.68326500     41.53400800
   350   2   4   -0.03167     18.76123400     20.59391100     41.02007700
   351   2   4   -0.03230     17.42475600     20.53693700     41.43309000
   352   2   4   -0.03167     17.01919000     19.56931700     42.36003500
   353   2   4   -0.02364     17.95010200     18.65867000     42.87396600
   354   2   2   -0.05107     19.12138100     16.07843800     44.57234700
   355   2   1   -0.23810     18.73759000     15.78112400     46.03382200
   356   2   3    0.01491     19.92861200     14.89951700     44.08385600
   357   2   4   -0.02364     21.32606300     14.97526400     44.04653100
   358   2   4   -0.03167     22.07661900     13.86566700     43.63976100
   359   2   4   -0.03230     21.42972400     12.68032500     43.27031600
   360   2   4   -0.03167     20.03227300     12.60457900     43.30764100
   361   2   4   -0.02364     19.28171700     13.71417500     43.71441100
   362   2   2   -0.05107     17.43281500     14.96924800     46.13390800
   363   2   1   -0.23810     17.04902400     14.67193300     47.59538300
   364   2   3    0.01491     16.26424000     15.69797600     45.51464300
   365   2   4   -0.02364     16.48754400     16.68077600     44.54292400
   366   2   4   -0.03167     15.40241000     17.32213800     43.93371100
   367   2   4   -0.03230     14.09397300     16.98069900     44.29621800
   368   2   4   -0.03167     13.87066900     15.99789900     45.26793800
   369   2   4   -0.02364     14.95580300     15.35653700     45.87715000
   370   2   2   -0.05107     18.14708100     13.88133900     48.33079500
   371   2   1   -0.23810     17.76329100     13.58402400     49.79227000
   372   2   3    0.01491     19.45677100     14.63201700     48.36679900
   373   2   4   -0.02364     19.46871100     16.02562700     48.23373200
   374   2   4   -0.03167     20.67798300     16.72630200     48.31569400
   375   2   4   -0.03230     21.87531400     16.03336600     48.53072400
   376   2   4   -0.03167     21.86337300     14.63975500     48.66379200
   377   2   4   -0.02364     20.65410200     13.93908100     48.58183000
   378   2   2   -0.05107     17.92828800     12.09293200     50.14015000
   379   2   1   -0.23810     17.54449800     11.79561800     51.60162500
   380   2   3    0.01491     17.06277900     11.21057300     49.27272000
   381   2   4   -0.02364     16.63045600     11.66660100     48.02166600
   382   2   4   -0.03167     15.86865200     10.83041200     47.19677700
   383   2   4   -0.03230     15.53917100      9.53819500     47.62294100
   384   2   4   -0.03167     15.97149300      9.08216600     48.87399500
   385   2   4   -0.02364     16.73329700      9.91835500     49.69888400
   386   2   2   -0.05107     18.53210700     10.82170000      0.55043700
   387   2   1   -0.23810     18.14831600     10.52438500      2.01191200
   388   2   3    0.01491     19.93954500     11.36833700      0.57060100
   389   2   4   -0.02364     20.15543400     12.74915200      0.48848900
   390   2   4   -0.03167     21.45741400     13.25933200      0.55604400
   391   2   4   -0.03230     22.54350500     12.38869700      0.70571200
   392   2   4   -0.03167     22.32761600     11.00788200      0.78782500
   393   2   4   -0.02364     21.02563600     10.49770200      0.72027000
   394   2   2   -0.05107     17.73838000      9.05362400      2.21294800
   395   2   1   -0.23810     17.35458900      8.75631000      3.67442200
   396   2   3    0.01491     16.54841300      8.67685700      1.36316800
   397   2   4   -0.02364     16.25640900      9.40663500      0.20465300
   398   2   4   -0.03167     15.18222400      9.02761000     51.11103500
   399   2   4   -0.03230     14.40004200      7.91880600     51.45563100