LAMMPS data file via write_data, version 10 Feb 2021, timestep = 1000000

2834 atoms
5 atom types
3129 bonds
3 bond types
3067 angles
3 angle types
643 dihedrals
1 dihedral types
1347 impropers
3 improper types

5.726863194620865 45.9934368053718 xlo xhi
5.726863194620865 45.9934368053718 ylo yhi
5.726863194620865 66.12672361074726 zlo zhi

Masses

1 14.0268
2 13.0189
3 12.011
4 13.0189
5 39.948

Bond Coeffs # harmonic

1 79.2304 1.54
2 79.2304 1.5
3 131.453 1.39

Angle Coeffs # harmonic

1 62.1415 112
2 62.1415 114
3 119.503 120

Dihedral Coeffs # opls

1 1.41109 -0.268642 3.14484 0

Improper Coeffs # harmonic

1 20.0048 0
2 20.0048 0
3 40.0096 35.26

Atoms # full

1 2 1 -0.23861 10.570678228460974 8.038117980760742 8.910101681503761 0 0 0
2 2 2 -0.05719 10.419311269185817 7.699814101233697 7.377358859683703 0 0 0
4 2 2 -0.05109 10.165339972060648 6.955241268904321 9.8836453355607 0 0 0
5 2 3 0.01491 8.65174748828766 7.242705846811644 10.191818116655666 0 0 0
8 2 3 0.01437 9.2411492972712 7.063949770757576 6.667289404063704 0 0 0
9 2 1 -0.27018 10.887154065873231 8.952769481608916 6.5719445644514005 0 0 0
13 2 4 -0.02366 9.415736907936479 5.920367148043148 5.961216309260407 0 0 0
14 2 4 -0.02366 8.009920909647562 7.773715776537838 6.550466044462812 0 0 0
6 2 4 -0.02364 8.168284490387407 8.63710811025757 10.155028889525097 0 0 0
11 2 4 -0.02364 7.720943493633664 6.267036668466988 10.355099362708973 0 0 0
12 2 4 -0.03167 6.352126311031591 6.583146300772626 10.226341770716452 0 0 0
10 2 4 -0.0323 5.97148263559793 7.889848165381324 10.095898686707402 0 0 0
7 2 4 -0.03167 6.79964460489385 8.916897550037778 10.114169609249211 0 0 0
16 2 4 -0.02364 14.729646454758274 11.293640091043311 9.001453096446584 0 0 0
17 9 4 -0.03167 15.117065216781715 6.911749208420432 9.949241524236616 0 1 0
18 9 3 0.01491 17.11791317435678 6.193758924647215 8.833797543478862 0 1 0
19 9 4 -0.02364 16.499569326880177 7.0912752324784725 9.686376506226186 0 1 0
15 2 1 -0.2381 12.841310217968154 10.446944643857929 11.199630624079516 0 0 0
20 9 2 -0.05107 19.25431710619613 8.842126831583611 7.804941830406081 0 1 0
21 9 1 -0.2381 19.73500345621595 10.297014952935562 8.455745003912364 1 1 0
22 9 1 -0.23861 21.306263574756027 9.31123622654698 10.376972386520112 1 1 0
24 9 2 -0.05109 21.292135603748672 10.190996888479091 9.069051770581284 1 1 0
25 9 2 -0.05107 18.32080249904394 6.5842799768117 8.055230766748874 0 1 0
26 9 1 -0.2381 18.38839420237728 7.882018886491922 8.603699839562939 0 1 0
27 9 3 0.01491 18.918911627696396 9.312384533728338 6.426077112794604 0 1 0
28 9 4 -0.02364 17.73285071694785 9.919555253660967 6.1193153104570985 0 1 0
29 9 1 -0.2381 19.783803720547 5.986947470349528 7.865333096494004 0 1 0
23 9 2 -0.05719 22.534650595741684 8.433856566467037 10.627062619553225 1 1 0
31 9 4 -0.03167 26.04984043277565 8.110109840053024 7.6891995454889495 0 1 0
33 9 4 -0.0323 25.105231593966895 8.301051055606536 6.5899877441157155 0 1 0
34 9 4 -0.02364 27.28722426722046 7.663864024291115 7.394893291934539 0 1 0
35 9 3 0.01491 27.683124727310474 7.629193146303565 6.07099318619971 0 1 0
32 10 4 -0.0323 27.985006615897632 8.861551746216628 10.766431011487088 0 0 0
36 9 4 -0.03167 25.434498724591297 6.075382378835394 10.450935045261781 0 1 0
30 9 1 -0.27018 23.659382150038848 9.387745531291397 10.881124715737451 1 1 0
39 9 2 -0.05107 32.70234194320049 9.503569706937457 6.504608909796991 0 1 0
40 9 1 -0.2381 31.209526981735028 9.685559116090872 6.874740613796454 0 1 0
41 9 2 -0.05107 33.05043752507155 9.58779298765875 9.010852535329203 0 1 0
42 9 1 -0.2381 33.52340054802063 8.949603824066868 7.6381226507932425 0 1 0
43 9 1 -0.2381 33.662105771800654 8.767984751242508 10.263679919984037 0 1 0
44 9 2 -0.05107 34.26580473633066 7.14882664972293 9.928552808784257 0 1 0
45 9 3 0.01491 33.850415535921414 10.108511282477117 5.840471288792554 0 1 0
46 9 3 0.01491 33.184139273398806 10.904791369918023 9.723288056080817 0 1 0
47 9 4 -0.02364 33.90739243243239 11.079741054662449 10.913145092525903 0 1 0
48 9 3 0.01491 29.386471782633624 11.324584127157426 6.091472311448594 0 1 0
49 9 1 -0.2381 28.841924615657046 9.37622946451342 5.781014695303223 0 1 0
37 10 4 -0.03167 29.35108087176459 8.706098395687821 10.814390082662786 0 0 0
50 9 3 0.01491 35.68719383827947 7.012655173623542 9.367393887952936 0 1 0
51 9 4 -0.02364 36.58104725586074 8.041816739235031 9.438574078499396 0 1 0
52 9 4 -0.03167 37.53087083182717 8.149637235326516 8.481621251572896 0 1 0
53 9 4 -0.02364 35.840697029373906 6.103570824489064 8.287116551857755 0 1 0
54 9 4 -0.0323 37.520896846225085 7.374054456546807 7.306175753210696 0 1 0
55 9 4 -0.03167 36.61304894281477 6.40839148531715 7.090366762308774 0 1 0
56 9 1 -0.2381 34.805763708491774 6.3212590708958984 11.172953957511737 0 1 0
57 1 1 -0.2381 40.864741624609806 8.993804099151369 7.644568854921713 0 1 0
58 1 1 -0.2381 41.22872249521589 8.996060733060983 10.238312713840115 0 1 0
59 1 2 -0.05107 41.97285988049421 8.918685129720371 8.827018487326729 0 1 0
61 1 4 -0.02364 41.70729901745871 11.437886140109399 6.025814390169899 0 1 0
62 1 2 -0.05107 41.34462568377981 8.8891359259375 6.142880187870133 0 1 0
63 1 3 0.01491 42.20703233388916 10.12615677529887 6.194008505823736 0 1 0
64 1 3 0.01491 42.38302539739986 7.4779542538972255 8.872457739838554 0 1 0
65 1 4 -0.02364 41.402270468774105 6.500581785087226 9.125321913596965 0 1 0
66 1 4 -0.02364 43.5914518670331 10.102949021423592 5.983458819867603 0 1 0
67 1 4 -0.02364 43.611403327719145 7.1046466073087355 8.43079426303181 0 1 0
68 1 4 -0.03167 43.819702705482996 5.784052873574622 7.91115692680752 0 1 0
69 2 4 -0.03167 5.759571351902112 11.941183499375285 8.333794539346902 0 0 0
70 2 4 -0.02364 6.55095916525928 12.946505226069062 10.81639932886404 0 0 0
71 2 4 -0.02364 6.9944768846634995 12.682040771863912 8.445203057720184 0 0 0
72 2 3 0.01491 7.3644444935137825 13.11165456623625 9.658925519160936 0 0 0
73 2 1 -0.2381 9.660101176696493 13.608725926592193 8.623341283402818 0 0 0
74 2 1 -0.2381 8.16765043295605 15.26852833421982 9.849479349243863 0 0 0
75 2 2 -0.05107 8.596472821757308 13.881437499200358 9.751499036330822 0 0 0
76 2 2 -0.05107 9.20343420631534 16.26683908889249 10.351325257018146 0 0 0
77 2 2 -0.05107 11.062671596753535 13.287416018263944 9.135352483820038 0 0 0
78 2 1 -0.2381 11.2707767230443 11.843236057524717 9.704272331512636 0 0 0
82 2 2 -0.05107 12.656957779943305 11.691264887701568 10.372410949926541 0 0 0
79 2 4 -0.03167 16.035665279577458 11.670604146452735 8.626122054455376 0 0 0
80 2 4 -0.0323 16.65692681753871 12.706965469081064 9.398183249361399 0 0 0
81 2 4 -0.02364 14.856838012380475 12.671081591591651 11.027533248166279 0 0 0
83 2 3 0.01491 14.14041368011147 11.782802511505336 10.2430860329653 0 0 0
84 2 4 -0.03167 16.123834435384232 13.165348202515727 10.640466844849335 0 0 0
85 2 4 -0.02364 11.809700578298159 12.540131554556922 6.836912500610596 0 0 0
86 2 3 0.01491 11.572888046110396 13.598961699530587 7.743534200261891 0 0 0
87 2 4 -0.02364 12.089112508069238 14.824932107430906 7.372227076184171 0 0 0
88 2 4 -0.03167 12.584401118427039 15.003197950049557 6.07487139166056 0 0 0
89 9 3 0.01491 21.062008439932363 11.627159817104127 9.467433009049444 1 1 0
90 9 4 -0.02364 20.61803942871043 11.880630933524161 10.779738021577447 1 1 0
91 9 4 -0.02364 21.281246793228746 12.672598767512875 8.547488084291391 1 1 0
94 9 4 -0.0323 20.317958546657753 14.18795889861654 10.205196460206844 1 1 0
95 9 4 -0.03167 20.995797304156895 13.931117295193541 9.017586421852297 1 1 0
96 7 4 -0.0323 17.32855491050856 14.335150617326706 6.194273061187589 0 0 0
97 7 4 -0.03167 18.686237040818124 14.603816220138553 6.371828005259003 0 0 0
98 7 4 -0.02364 19.223403508889227 15.787077346158979 6.04668900798576 0 0 0
92 7 4 -0.0323 17.537985176083748 16.99056976113041 10.341595243888486 0 0 0
93 9 4 -0.03167 20.11850145871706 13.17719666929287 11.101165545359736 1 1 0
99 10 4 -0.03167 24.613479009210995 12.929509912285699 7.462978462738982 0 0 0
100 10 4 -0.0323 24.286493415406866 14.073883027218672 6.826992370995987 0 0 0
101 10 3 0.01491 25.00948774837492 14.058706181115458 9.487249337230264 0 0 0
102 10 4 -0.02364 25.40933229546268 13.146604684111491 8.597072416437339 0 0 0
103 10 4 -0.02364 24.679901418252467 15.240912380161696 8.860807857012446 0 0 0
104 10 2 -0.05107 25.505364642502204 13.988291061040925 10.87207941766126 0 0 0
106 10 4 -0.03167 24.423991681924782 15.253456817583201 7.433974817237091 0 0 0
107 10 3 0.01491 28.45666042682851 16.01891305691524 10.329349491605388 0 0 0
110 9 4 -0.0323 28.236376450580543 13.784372559410864 6.554114397084139 0 1 0
105 10 1 -0.2381 26.993609306785103 13.790808113272965 10.511669647042206 0 0 0
108 10 4 -0.02364 27.575606873168436 17.09271831311016 10.070786663168937 0 0 0
109 10 2 -0.05107 27.95284781347176 14.875774938534052 10.978870156416416 0 0 0
111 9 4 -0.03167 28.87811662575908 13.153526399818151 7.520626529763338 0 1 0
112 9 4 -0.02364 29.358520766231173 11.814427166595415 7.2956721757922285 0 1 0
113 9 4 -0.02364 32.73416453018381 12.118972603541359 9.087491779779219 0 1 0
114 9 4 -0.03167 32.95767042524973 13.405781639889309 9.549713947417198 0 1 0
115 6 4 -0.03167 33.27565831322656 16.135204294145634 6.729457120344453 0 0 0
116 10 4 -0.02364 29.81969666069682 16.072080027634907 9.73308340389094 0 0 0
117 10 4 -0.03167 30.18234965886378 17.039077287246016 8.855008080990137 0 0 0
118 9 4 -0.0323 33.71313009671816 13.554631395633741 10.679911166253424 0 1 0
120 9 4 -0.02364 33.86448543706592 11.537096447208832 5.767705214258299 0 1 0
121 6 4 -0.0323 37.232240605249544 13.352679455164386 9.305278162039503 0 1 0
122 6 4 -0.03167 37.998763601125006 12.655080265939471 8.250233191808658 0 1 0
123 6 4 -0.0323 34.53446550346577 16.063309478969153 7.263328229738334 0 0 0
124 6 4 -0.03167 37.470938973321935 14.676162492031283 9.484325738233913 0 1 0
125 6 4 -0.02364 38.554571992006586 15.319417809826584 8.834622408035584 0 1 0
126 6 3 0.01491 39.35634105235873 14.57612515744717 7.859857010435349 0 1 0
127 6 4 -0.02364 38.998371678809576 13.296667558398077 7.563693769705714 0 1 0
128 6 4 -0.03167 35.60919738534478 16.440288061644765 6.4450160140421 0 0 0
129 6 1 -0.2381 39.81640035336159 16.72140146467668 6.732170592313342 -1 1 0
132 2 4 -0.03167 45.43400605903171 12.625998738611962 10.599930846391805 -1 0 0
133 2 4 -0.0323 45.049835874079136 12.028618505131243 9.37121662976385 -1 0 0
134 6 4 -0.0323 45.578003019563255 16.279299184360255 6.174792482008805 -1 1 0
135 6 2 -0.05107 40.57902402898195 15.308711210617137 7.070077433781228 0 1 0
137 6 1 -0.2381 41.50092855015889 15.391650513955788 8.417831107291832 -1 1 0
138 6 3 0.01491 43.41317975277401 16.783052415511904 7.798404332821754 -1 1 0
139 6 4 -0.02364 44.4881741289027 16.010529160671528 8.279724241283681 -1 1 0
140 6 4 -0.03167 45.53955906347923 15.808892063825517 7.464665715793488 -1 1 0
141 6 2 -0.05107 42.28646329088082 16.777004994681803 8.529338630783304 -1 1 0
142 6 1 -0.2381 43.24738325868498 16.958056961152785 9.74322309913347 -1 1 0
131 1 4 -0.02364 40.79828775731292 11.498524737664331 10.98579944410322 0 1 0
136 1 4 -0.03167 41.13539011398212 12.810556025452433 10.760792958849954 0 1 0
143 2 4 -0.02364 7.5569509100899666 18.070098042838087 9.59809207260013 0 0 0
144 2 3 0.01491 8.841254881132514 17.490486487227262 9.56890572128361 0 0 0
145 2 4 -0.03167 7.124634675368424 18.841396282971864 8.558181411801959 0 0 0
146 2 4 -0.02364 9.788381090755582 17.98365225847641 8.542706333545805 0 0 0
147 2 4 -0.03167 9.368565569621381 18.789506377301844 7.526436905338352 0 0 0
148 2 4 -0.0323 8.009463459337205 19.260749473856954 7.508908016368068 0 0 0
150 7 4 -0.03167 16.657106542333395 17.241442434400483 9.381254716000171 0 0 0
151 7 4 -0.02364 14.044920922182586 21.051970971059013 9.31330192446836 0 0 0
152 7 4 -0.03167 14.096486037880497 20.824450886955677 10.7190147688717 0 0 0
153 7 4 -0.02364 16.888919337128556 18.155095572625875 8.298958883214624 0 0 0
154 7 3 0.01491 14.195716892387242 22.394513948154025 8.801110961647733 0 0 0
155 7 2 -0.05107 14.641264787829936 22.577996558015524 7.444164197115226 0 0 0
156 7 2 -0.05107 17.212504686563747 22.03085119503199 7.041922633268698 0 0 0
157 7 1 -0.2381 16.14117379631715 22.944343295562625 7.760607327308763 0 0 0
158 7 4 -0.03167 18.739137233154185 17.582487017004986 10.276203166068564 0 0 0
159 7 1 -0.2381 17.28863840779234 20.579563134633098 7.826902792066235 0 0 0
160 7 3 0.01491 18.130877002860828 18.695810002322894 8.198431013959258 0 0 0
161 7 4 -0.02364 19.02405498920225 18.40668341115834 9.24373965458854 0 0 0
162 7 2 -0.05107 18.382416341213826 19.790531099028534 7.277816465033991 0 0 0
166 7 1 -0.2381 18.094496661675883 19.484867528479533 5.8461767213785105 0 0 0
167 7 4 -0.02364 22.544688973986567 19.514643834010077 6.518042250168798 0 0 0
168 7 4 -0.02364 18.280645666800968 22.726135391748304 9.190437028840153 0 0 0
163 10 4 -0.03167 21.919885558769522 20.241925506131007 10.332030097541455 0 0 0
165 10 4 -0.0323 21.942210805813783 21.55001445513069 10.886286540173934 0 0 0
164 10 4 -0.02364 21.999582596729276 19.163820915200255 11.209704763194253 0 0 0
169 10 4 -0.03167 27.829676152204097 17.93610618046984 8.969389001217168 0 0 0
170 7 4 -0.0323 24.745662412186586 18.56367222255952 6.010838185308368 0 0 0
171 7 4 -0.03167 23.901684885292486 19.44471533925199 6.765215650931088 0 0 0
172 10 4 -0.0323 29.15556262505675 17.872593079459765 8.38235348148408 0 0 0
173 6 4 -0.02364 31.28640912603675 20.70556239213783 6.012158425848571 0 0 0
174 6 4 -0.03167 29.956210999418975 21.047263277260036 6.264252046996427 0 0 0
177 6 4 -0.03171 33.3871254598711 18.934228437714104 10.710781295211717 -1 1 0
243 6 4 -0.03167 29.700213611306815 22.973975149683945 10.100411498273537 0 0 0
176 6 4 -0.03231 32.05693899510547 19.227570641873957 10.586481852560352 -1 1 0
178 6 4 -0.03167 35.327282806819525 22.691890719549633 8.732288382061318 0 0 0
179 6 4 -0.02364 38.40677481197176 18.704212019198117 7.157639781211147 -1 1 0
181 6 4 -0.03167 37.89507937688745 19.99238239686394 7.308203393459033 -1 1 0
182 6 4 -0.0323 38.205160723163544 20.917880509661547 6.291280873524664 -1 1 0
183 6 3 0.01491 38.9612849916456 18.296010425548936 5.896806680218756 -1 1 0
185 6 4 -0.02364 35.06427967637224 22.647052012759968 7.367266731170771 0 0 0
186 6 4 -0.03167 37.263303419874354 19.238289395652064 10.718921065596177 -1 1 0
184 6 4 -0.0323 37.473096476470275 20.605684808865288 10.862595056222556 -1 1 0
643 6 4 -0.02364 38.144191534208936 18.296778795045498 10.862760135387358 -1 1 0
187 6 4 -0.02364 43.50130121024647 17.4653742981529 6.609325211713194 -1 1 0
188 6 2 -0.05107 42.549003769428644 17.654801550665045 10.927621005679757 -1 1 0
189 7 1 -0.2381 45.67759169813276 21.88661166810312 6.761446159365866 -1 0 0
190 7 4 -0.02364 43.52199562902021 21.395721974824127 8.642351618551126 -1 0 0
191 7 4 -0.03167 42.2736103252454 20.83314680341337 8.326706644915292 -1 0 0
192 7 4 -0.0323 41.16046220738751 21.727383903501707 8.16170118317826 -1 0 0
193 7 3 0.01491 43.76762820845866 22.6772195822693 8.280151059464584 -1 0 0
194 7 4 -0.03167 10.044125264691857 23.02463757885801 8.932060165024925 0 0 0
195 7 4 -0.0323 10.324008832237846 24.106005796643732 9.715559510950733 0 0 0
196 7 4 -0.02364 10.240027070137945 23.139777760302287 7.545085317859234 0 0 0
197 7 2 -0.05107 6.395457591943406 23.75190077795861 9.376103528060305 0 0 0
198 7 3 0.01491 6.491552335933843 25.275907146854845 9.134189770387529 0 0 0
199 7 1 -0.2381 6.4209713946557825 23.833908775423478 10.905674351106093 0 0 0
200 7 4 -0.03167 10.717388739004608 25.32605335978348 9.196850514781968 0 0 0
201 7 4 -0.03167 7.2784656642339955 26.595845123757265 7.349078395064916 0 0 0
202 7 3 0.01491 11.019389730659697 24.17584437672589 7.061694959077974 0 0 0
203 7 4 -0.02364 10.85460093279687 25.40336719140258 7.7941406764141785 0 0 0
204 7 4 -0.02364 7.561530897246948 25.878913446068886 8.459914529272119 0 0 0
205 7 4 -0.0323 6.0433847773455724 27.148793153796184 7.256829072955625 0 0 0
207 7 4 -0.02364 14.045381431952151 23.495092796946604 9.705251813788877 0 0 0
208 8 4 -0.0323 14.243662790718696 26.94723206834723 9.601575322392456 0 0 0
209 8 4 -0.03167 15.562917479839507 26.494538507490407 9.646413940994787 0 0 0
210 8 4 -0.02364 16.58578409742106 27.37348730354431 10.158247732781156 0 0 0
212 8 4 -0.03167 13.889533688276547 28.14498219214073 10.259294725017226 0 0 0
214 7 1 -0.2381 14.475972838765992 23.172666450745066 6.030433545386704 0 0 0
215 8 4 -0.0323 14.4441653500808 27.764859555287895 5.989542319871521 -1 0 0
216 8 4 -0.03167 15.828679276482598 27.99417042256056 5.99179838469139 -1 0 0
206 7 4 -0.03167 13.765210709706478 23.17921934319775 11.050783303302303 0 0 0
211 8 3 0.01491 16.236577066549557 28.48277018601156 10.981025685085065 0 0 0
217 7 3 0.01491 17.8600028269383 23.12707428636595 7.970713697179471 0 0 0
218 7 4 -0.03167 19.250279647617333 23.43397021021638 9.83296817299498 0 0 0
219 7 4 -0.02364 18.25653338282385 24.39881163881367 7.471741397103839 0 0 0
220 7 4 -0.03167 19.293194337656935 25.139903894025192 8.128647876405733 0 0 0
221 7 4 -0.0323 19.77222153316407 24.589538887719783 9.319385277155002 0 0 0
222 4 3 0.01491 21.834501624948416 28.198272777142417 7.213437197300873 0 0 0
223 4 4 -0.02364 20.515225295686427 28.064676939589116 7.524407398211954 0 0 0
224 4 1 -0.27018 22.640834507335615 24.29815706677773 6.480456787595306 0 0 0
225 4 2 -0.05109 22.842231623774016 27.25893924672571 7.742775060750628 0 0 0
226 4 4 -0.03167 19.556939510394415 28.513355508220034 6.670242690265826 0 0 0
228 4 4 -0.03167 26.63336218094302 23.17312085256711 5.941777264768025 0 0 0
229 4 4 -0.02366 25.29195002272134 23.587146220978283 6.074450145868235 0 0 0
230 4 3 0.01437 24.937287127829997 24.899992067377887 6.021801716826222 0 0 0
231 4 1 -0.23861 23.94709155733453 26.414124763031452 6.976820187866268 0 0 0
232 4 1 -0.2381 23.400076831967763 28.327293932883315 8.542901771412307 0 0 0
233 4 3 0.01491 24.083280181973585 27.121813327456994 10.446831563878556 0 0 0
234 4 2 -0.05107 24.613808295984082 28.0567577972945 9.382428333615449 0 0 0
236 6 4 -0.03167 28.50917268451263 25.107162517680422 9.596513926937444 0 0 0
237 4 4 -0.02366 25.986367644357923 25.835845087487492 5.901914559030024 0 0 0
238 4 2 -0.05719 23.436188375211586 25.3576240761847 5.894406003707929 0 0 0
235 4 4 -0.02364 24.499773360226875 25.827746795051073 10.41583405967597 0 0 0
245 6 4 -0.02364 28.972504251328818 25.613339025870037 10.8521167414766 0 0 0
239 6 4 -0.0323 34.24916519611188 23.154236311924908 9.547888833083771 0 0 0
240 6 4 -0.03167 33.07177348587348 23.661366318979336 8.942273040219368 0 0 0
241 6 4 -0.02364 32.98746488552667 23.671145491318466 7.558181176170692 0 0 0
242 6 4 -0.0323 28.850065780557465 23.787069444912472 9.240917697993064 0 0 0
246 4 4 -0.03167 31.008622395774644 28.648035002040732 8.283335024479992 0 0 0
247 6 3 0.01491 34.063824870247956 23.478506686631544 6.825326391688551 0 0 0
244 6 4 -0.02364 30.289876452773502 23.62902166005361 11.149127857111228 0 0 0
248 6 2 -0.05107 34.80413153567103 26.434362649290275 6.179671347305554 0 0 0
249 6 1 -0.2381 37.33693931678296 25.814947660483025 8.10268458060085 0 0 0
250 6 2 -0.05107 37.31710301020635 26.832421810170274 6.843186249938349 0 0 0
251 6 2 -0.05107 38.116043776065695 26.1752972774591 9.431166799369926 0 0 0
252 6 1 -0.2381 36.25062953639402 26.248084713987375 5.770502568169522 0 0 0
253 6 3 0.01491 38.537102567731054 26.925871383189147 5.984217508320031 0 0 0
254 6 1 -0.2381 37.514141404905445 27.45236652313491 10.185127568554881 0 0 0
256 6 3 0.01491 39.44951745966043 26.457397994141836 9.810637077645524 0 0 0
257 6 4 -0.02364 39.4728183798922 25.88179433323318 5.985405499180781 0 0 0
259 6 4 -0.02364 40.14193240813918 27.510540662304333 9.235101713530744 0 0 0
255 6 2 -0.05107 36.11314171067222 27.312963071200187 10.695458443503167 0 0 0
258 6 4 -0.02364 40.08277037406912 25.68124043383447 10.802850505311188 0 0 0
260 6 3 0.01491 36.588086016922155 28.72635889149756 11.130824780396928 0 0 0
261 7 4 -0.03167 41.40607631183357 23.067736245219585 8.243870489926628 -1 0 0
262 7 1 -0.2381 45.33414390195985 23.14964691436526 8.903877110488745 -1 0 0
263 7 2 -0.05107 45.026217123759125 23.03141140992804 7.458877043613084 -1 0 0
264 7 4 -0.03167 45.3039218685804 26.96994784342226 8.26714657014609 -1 0 0
265 7 4 -0.02364 45.6555098424451 26.154749798626046 9.336663764687154 -1 0 0
266 7 4 -0.02364 42.661884186503286 23.551051917405964 8.361113003632967 -1 0 0
268 6 4 -0.0323 42.20562836933684 26.692702134868288 10.287186874575971 0 0 0
269 6 4 -0.03167 41.60484127324082 27.648016347437274 9.469349840686144 0 0 0
267 6 4 -0.03167 41.45526517301968 25.77285779940887 10.961064871967196 0 0 0
270 9 4 -0.03167 10.331091405995389 29.05343951338512 6.610126462377791 0 0 0
271 9 3 0.01487 9.590468389868109 31.252022135389723 6.5136416650470785 0 0 0
272 9 4 -0.02364 10.51737783362411 31.607728014290966 7.566105693696301 0 0 0
273 9 4 -0.02364 9.762625989673545 30.04150686569566 5.953638356583843 0 0 0
274 9 1 -0.23814 7.526085201875623 31.72315837561807 5.856004587817769 1 0 0
275 9 2 -0.05208 8.923129490524602 32.26938499123233 5.838180215080072 0 0 0
276 9 4 -0.03167 11.240343631551875 30.531101886389553 8.226274887980011 0 0 0
277 9 4 -0.0323 11.110591921490848 29.298387784834446 7.806430333232978 0 0 0
279 9 1 -0.2381 6.1506351221862365 33.779687035519565 6.732790570884383 1 0 0
281 7 4 -0.0323 6.339452591744092 30.192236864474026 10.250585000757004 0 -1 0
278 7 4 -0.03167 7.682682155090217 30.808014956656454 10.128309148939133 0 -1 0
213 8 4 -0.02364 14.913885172471401 28.92832900198438 10.911720950630611 0 0 0
282 8 4 -0.03167 14.986047446923578 32.5283491483639 8.769851922429227 0 0 0
283 8 4 -0.0323 14.942848494969905 31.810898991823628 7.591572810285694 0 0 0
284 8 4 -0.02364 16.183942515861123 32.46165447920315 9.536357306085073 0 0 0
285 8 4 -0.03167 16.024985388132897 31.03481212367584 7.21925975420334 0 0 0
286 8 4 -0.02364 17.13335860322993 30.962902936090615 8.047859758085078 0 0 0
287 8 3 0.01491 17.134669582809863 31.501559235167274 9.288928045415158 0 0 0
288 7 4 -0.0323 12.733521138076238 33.82108644631103 11.119814609800986 0 0 0
290 8 2 -0.05107 18.37868025422962 31.28976392731534 10.255456943560317 0 0 0
291 8 1 -0.2381 18.2658094815213 29.728727714938525 10.460584508948747 0 0 0
292 8 1 -0.2381 19.6497277633069 31.560479815590245 9.286528076136383 0 0 0
293 8 2 -0.05107 20.006747649079294 33.09113410603557 9.362293848796302 0 0 0
294 8 1 -0.2381 20.85381026221634 33.398645017061796 8.160903216002916 0 0 0
295 8 3 0.01491 21.05224032268564 32.80722247676088 10.577361416944346 0 0 0
297 8 3 0.01491 21.94788184942373 33.91312313937395 6.781192386078554 0 0 0
298 4 4 -0.02364 22.229649352636056 29.06318578526115 6.104513304132021 0 0 0
299 8 4 -0.02364 22.887834604398623 32.93317967107353 6.761933282671652 0 0 0
296 8 4 -0.02364 21.78607148067221 31.635568171841243 10.591682615961696 0 0 0
300 4 2 -0.05107 26.65702118940422 29.315639308817577 10.282802576563709 0 0 0
301 4 1 -0.2381 25.334048760342917 29.2997719288023 9.593661168985307 0 0 0
302 4 1 -0.2381 27.54473838259075 30.626544212222765 10.17838100791876 0 0 0
303 4 2 -0.05107 27.22732174270556 33.25988252285001 7.920150887430667 0 0 0
304 4 2 -0.05107 28.0298394843119 30.83736759542395 8.713943153381598 0 0 0
305 4 1 -0.2381 28.394019395179495 32.286473726977164 8.333638694312338 0 0 0
306 4 3 0.01491 27.333827970495104 33.98362030952893 6.558889884572248 0 0 0
308 4 4 -0.0323 31.93951078876236 29.20130727537425 9.067520756115655 0 0 0
309 4 4 -0.02364 29.715449804639963 29.18764178665972 8.088354492349843 0 0 0
310 4 3 0.01491 29.35715552238058 30.366629854111565 8.629600818348548 0 0 0
311 4 4 -0.03167 31.565171064466544 30.38639064048492 9.70600274327342 0 0 0
312 4 4 -0.02364 30.31826847785277 30.97402159297348 9.450446108942506 0 0 0
313 9 4 -0.0323 33.178955301568834 31.43618444678326 6.776302721061432 0 0 0
314 9 4 -0.03167 31.93649219849238 31.90476733670103 6.292327334572956 0 0 0
315 9 4 -0.03167 34.216771258113 32.26862451496925 6.78967043564478 0 0 0
316 9 4 -0.02364 34.04241272565454 33.548290752852076 6.219964574766272 0 0 0
318 9 4 -0.0323 39.02137880902521 31.311306055734757 8.44656459626205 0 0 0
319 9 4 -0.03167 40.01292556242585 32.088691185061926 7.909663545072975 0 0 0
320 9 4 -0.03167 37.87329918614826 31.081171012966216 7.683211632326519 0 0 0
322 9 4 -0.02364 39.85449751595738 32.66081524282687 6.7166588008945 0 0 0
323 4 4 -0.03167 37.08758251893025 34.14286337041934 9.897457547931756 0 0 0
324 9 4 -0.02364 37.788296416382266 31.546695976821212 6.41317875296348 0 0 0
325 9 3 0.01491 38.689117129273356 32.49641748334693 5.966129112705814 0 0 0
317 6 4 -0.02364 35.851465195255045 29.874411859937645 10.729252554875796 0 0 0
327 9 4 -0.02364 45.73376203417827 30.86799442789143 6.778226412026687 -1 0 0
328 9 4 -0.03167 44.59725151414072 30.19221767623491 7.19803248661085 -1 0 0
332 9 4 -0.0323 43.504420246496636 30.019350523347555 6.374110850752587 -1 0 0
326 4 4 -0.03167 44.209506624761616 32.357472419712366 10.45117604679747 0 0 0
329 4 4 -0.0323 43.136675833291996 31.664661122830317 10.003734343490779 0 0 0
330 4 4 -0.03167 41.90162823730573 31.67625515530353 10.698691584469238 0 0 0
333 10 4 -0.02364 8.852800309590092 37.507069187287286 9.19945277305519 1 0 0
334 10 2 -0.05107 10.054766956949338 39.40784872728263 8.415786471306834 1 0 0
335 10 4 -0.03167 8.329067650349685 36.16475800794761 9.069310839948729 1 0 0
336 10 3 0.01491 9.707731683763893 38.02955500195699 8.364936440969908 1 0 0
337 10 4 -0.0323 9.008306227992465 35.232511488444345 8.307399456477505 1 0 0
338 10 1 -0.2381 10.829342989759976 38.77005956814017 9.721498470640782 1 0 0
339 10 4 -0.02364 10.346083965689239 37.12780182322231 7.480834783814109 1 0 0
340 10 4 -0.03167 9.949166160147156 35.75670971118572 7.442790786071176 1 0 0
341 10 1 -0.2381 11.132302667236686 40.225151575082265 7.598110147177993 1 0 0
344 10 2 -0.05107 11.665997468202038 39.76252266536051 10.692008059892327 1 0 0
343 10 3 0.0029 15.813476625133942 37.76659334810009 10.502044755322933 1 0 0
346 8 4 -0.03167 16.34830057651477 40.104936250703446 7.161580907272495 0 0 0
347 10 4 -0.03231 16.756008510246495 35.702498970481216 8.918769116333978 1 0 0
348 10 4 -0.0248 14.981530201880913 37.36751104498052 9.462934224921284 1 0 0
349 10 4 -0.03171 15.440292566198401 36.32973372771342 8.645960297535355 1 0 0
350 10 4 -0.0248 17.147703987439197 37.262178667960605 10.595370494066287 1 0 0
351 8 2 -0.05107 21.631095703361126 34.71637966110043 8.031848805202536 0 0 0
352 8 4 -0.02364 17.289614880590765 39.646785702832986 6.3056187884678145 0 0 0
353 8 1 -0.2381 20.699396542487683 35.81012598053309 7.8844350597401345 0 0 0
354 8 1 -0.2381 20.363432880682453 38.44150237867882 7.519122082588845 0 0 0
355 8 2 -0.05107 21.360306934978176 37.22166996037942 7.8332003207634315 0 0 0
356 8 4 -0.02364 21.896627330082865 38.38599900376753 9.963704843838082 0 0 0
357 8 3 0.01491 22.186121082910066 38.11089144115729 8.547935436089604 0 0 0
359 8 4 -0.02364 19.050815386789484 40.1177574722343 7.8548446572833885 0 0 0
360 8 3 0.01491 18.665984330829744 39.43375035825723 6.751216835051082 0 0 0
361 10 4 -0.03171 17.512497539871074 36.14559481149819 9.949937287952324 1 0 0
362 8 2 -0.05107 19.543901090243985 38.286108296920744 6.220759075517088 0 0 0
358 8 4 -0.03167 22.956850512796695 38.94490203547457 10.744830008161118 0 0 0
363 8 4 -0.02364 23.125617379099978 38.92867180282694 7.9347222568524955 0 0 0
364 4 4 -0.02364 26.2119434441797 34.6434873344984 6.111683142541884 0 0 0
365 4 1 -0.2381 27.701573350638068 34.67149978352177 8.343652773355235 0 0 0
366 4 2 -0.05107 27.969095817611432 35.04860828462658 9.877214249987345 0 0 0
368 4 3 0.01491 26.800793616270706 35.10228816701153 10.703874879342331 0 0 0
369 8 4 -0.0323 24.061342924848955 39.49401548741831 10.137858527776821 0 0 0
370 8 4 -0.03167 24.14229687997385 39.522714456544506 8.764479307277076 0 0 0
371 4 1 -0.2381 28.46432275329507 36.49223409892218 9.995112711347463 0 0 0
372 4 4 -0.02364 28.246000156348817 38.73539662246713 10.004706717168302 0 0 0
373 4 4 -0.03167 28.263342559043913 39.615791173465865 7.380990353595152 0 0 0
374 4 4 -0.03167 27.779925730645353 39.991666380955806 9.746007712982195 0 0 0
307 4 4 -0.02364 25.736070482152034 35.74717460596397 10.200295296237801 0 0 0
759 4 4 -0.03167 24.588803778721328 35.75678577083137 10.875480589685484 0 0 0
375 4 4 -0.02364 28.849347534711203 38.41560301208078 7.716263451319416 0 0 0
376 4 3 0.01491 29.02244244025283 38.10443592850311 9.109006543115823 0 0 0
377 9 4 -0.03167 31.458484253782547 34.75392850141727 10.348842244949239 0 0 0
378 4 2 -0.05107 29.88856025194955 36.993659991642865 9.499245330789924 0 0 0
379 9 4 -0.02364 32.22550547624536 35.509618324418526 8.888469103931136 0 0 0
380 9 3 0.01491 32.55213341750265 37.38579098372134 8.924664740877052 0 0 0
381 9 2 -0.05107 33.02123678683476 38.057227129591894 7.725084481078491 0 0 0
382 9 1 -0.2381 32.28452265803981 37.14935128294543 6.715216810710728 0 0 0
383 9 4 -0.02364 32.082759999514 38.43333153930769 10.435259868362621 0 0 0
384 9 1 -0.2381 32.81711282174548 39.51512359529643 7.494187686678076 0 0 0
385 4 1 -0.2381 33.586747146083916 36.25554919705803 11.128442423490103 0 0 0
386 4 4 -0.0323 36.984886839525245 34.55820402599235 8.612356754543754 0 0 0
387 4 4 -0.03167 37.04222175979366 35.86160147663385 8.346351371269071 0 0 0
388 4 4 -0.02364 37.26461225511437 36.818963588245424 9.365374979897116 0 0 0
389 4 3 0.01491 37.22780141378627 36.40490130188482 10.721493595237323 0 0 0
390 4 4 -0.02364 37.29212502930496 35.03203369940329 10.916045844024477 0 0 0
391 9 4 -0.02364 45.44779253417883 37.565081515075434 7.652365718337922 0 0 0