LAMMPS data file via write_data, version 15 Sep 2022, timestep = 100000

3000 atoms
2 atom types

0.6032001218824554 34.49679987811646 xlo xhi
0.6032001218824554 34.49679987811646 ylo yhi
0.6032001218824554 34.49679987811646 zlo zhi

Masses

1 28.0855
2 15.9994

Atoms # charge

362 2 -0.5426664443882639 5.841797404197473 3.2717418001015854 1.6325195768295637 1 0 1
724 1 1.060161429341769 1.1098034481664567 5.194857570236747 1.661773272686462 0 0 0
2131 1 0.9984042609471816 7.1222307116977985 4.189920995274323 1.8107499623814194 1 0 0
2762 2 -0.5469833617648815 8.555032343955592 3.5851409514429227 1.478035168326785 0 1 0
1370 2 -0.540745643500311 2.565696046843553 5.588066840988623 2.077815127364211 0 0 0
2344 1 1.019320875576605 3.6358591680928374 6.743544773359997 2.2370425540320076 0 0 1
686 2 -0.5234277883270818 2.6663922755488514 1.3725352666343427 4.663286702619975 0 1 0
1000 1 1.091342153508365 7.801233237574174 0.8768231008734587 3.001894813483613 0 1 0
1484 2 -0.5619539452435172 7.256648883085644 2.101416775773801 3.77759589772561 1 1 0
151 1 1.05912685799006 3.2413017696493127 2.8042654226720725 4.129747984382873 1 0 1
1856 2 -0.5485691146861585 4.822413457205924 2.8057719710862257 4.101121249868567 1 1 1
2656 1 1.04585344915137 6.353270810577855 3.1792226523053153 4.320586628590827 1 1 1
938 2 -0.6033743054012281 6.933318903956172 4.599932825301633 3.4566960899907837 0 0 0
1341 2 -0.5487648621456931 4.549878735544322 6.548959848069551 3.5069134436720866 1 0 0
2665 1 1.0298755385293 5.188876282294027 6.720195085601501 4.97761614681944 0 0 0
2992 1 0.9808033945251615 7.710505560884083 6.1310618454041395 3.7433278231941842 0 0 0
2289 2 -0.6148418900403936 6.757486283113334 6.208088837205353 5.2580235814935525 0 0 1
2569 1 1.073328563905782 6.816043036983758 2.1040598578257654 7.007030616570983 0 1 0
1526 2 -0.5376973474364259 8.323400915737917 1.6009387821292902 7.110647602191259 1 0 1
1695 2 -0.5421867264502975 2.7122480608250643 3.9956234027922544 5.034794175754993 1 1 0
2454 2 -0.5391509710915556 2.377481688153151 4.749289784041991 7.477019266981254 1 1 0
500 2 -0.5341261922637859 6.682622742591007 3.192068398424608 5.8712674642105815 0 0 1
189 2 -0.528368665942913 8.898646644616516 5.42601629151078 6.453664756513885 0 1 1
2750 2 -0.5150904324520668 1.7501712832652676 6.208554920762681 5.507569063382885 1 1 1
2341 1 1.079715217737472 2.7929146190432914 5.198303472974091 6.049459394428144 0 1 0
2309 2 -0.5407702360379401 4.140684572991373 6.070123739855887 5.926220630325997 0 0 1
1462 1 1.072205668781274 7.662814727538961 6.3556653026833825 6.622490651556068 0 0 1
911 2 -0.5492770335531426 6.3224362327329615 2.5784112003827495 8.389906491478243 1 0 0
504 2 -0.5395484443505475 7.00090554981768 6.144744935314973 8.040074556231591 1 0 0
1617 2 -0.5022792628078365 3.296935058545172 3.050613376575888 2.5689047818121873 1 1 1
2572 1 1.058974271103488 4.330096346001594 3.010998450913123 1.3043393891242843 1 0 1
708 2 -0.5200301502234627 4.621315069798991 6.66530420236832 0.9716550504939472 0 0 0
1521 2 -0.5613872784005711 7.576084562869611 7.260509306672881 2.756720553933311 0 0 0
153 2 -0.5333032638624601 5.851999103716563 0.9013144599728886 6.831087601123241 0 0 0
1838 2 -0.5504574933080345 9.006221202392174 1.2586891513225686 2.1014768763290377 0 1 0
1860 2 -0.5031679278637479 4.168418402784536 1.6017926427163065 0.6556803531598744 0 1 1
152 2 -0.519330071704622 6.7772256290554465 5.450028778871909 0.8907386594393187 1 0 0
1839 2 -0.5223123216265805 9.209518723377682 6.124261421869813 4.088569656417286 0 1 0
2596 1 1.089602225790105 9.455278950037659 2.380390705538738 1.0687219620885242 0 1 0
1021 1 1.092951246363554 12.124468712938514 2.4115815100032125 2.215120231551092 0 0 0
600 2 -0.523000364059695 10.959008346558702 2.7031784288624867 1.215110856915661 0 0 1
912 2 -0.4566324151684749 13.45548143973589 3.268181567299674 1.9436984881628132 0 0 0
1432 1 1.122142406802331 14.515467659232081 4.518237341403408 1.7649375527302742 -1 0 0
2921 2 -0.4876040857115414 16.051849288116625 5.090458608716193 1.3693477851150866 -1 1 -1
2635 1 1.064133379287227 12.478221085107235 6.866749175991916 2.097401806232208 0 0 1
642 2 -0.5155952926130805 13.638736652191067 5.818532607522798 2.17774360411674 -1 0 1
2014 1 1.051028759686607 11.497741990818378 2.9016537926860644 5.117489798998347 0 0 1
2426 2 -0.5266521388823099 11.513491638384323 2.975938904455887 3.553413375621972 0 0 0
2004 2 -0.5306156746639521 15.50669669450576 3.0585321018028337 5.700978224279025 0 0 0
2919 2 -0.4908128718215463 15.128833116438253 3.980226391116231 3.1718358023594444 0 1 0
1194 2 -0.5182888342779519 16.141930564326312 5.415377657252665 4.993476755122542 0 1 1
2506 1 1.068759791530169 16.026741772533647 3.9188303672784546 4.440271214824324 0 0 1
50 2 -0.5110908393641067 11.681651180251485 6.56244080786287 3.3910215734169427 0 1 0
424 1 0.9632766459875586 9.765535004466292 2.0738539690071223 7.233996476402939 1 0 0
267 2 -0.5217301759060343 10.118986549573576 2.3262518100734546 5.6927305447606935 0 -1 0
2405 2 -0.5723883435308219 12.679363196071094 1.9605999854605665 5.4353089099331555 0 1 1
457 1 1.086493617594628 15.726858013744934 1.947615095568813 6.799360598365312 0 1 1
1385 2 -0.4910688202287235 17.217311692070094 1.6754093243544692 6.512952812110326 0 1 0
589 1 1.038186460247383 10.331134322246259 4.885900108978605 6.926196540051609 0 1 0
2559 2 -0.5269094326521235 11.344806050904438 4.3229753339557195 5.84610647315641 0 0 1
92 2 -0.5379306365973696 11.046634601766927 6.093638490424787 7.64168048136846 0 0 1
367 1 0.9258883066088037 15.500786378931567 6.380543620801609 6.10335841265687 0 0 1
1562 2 -0.5386659390903769 15.32197667959849 5.920587921774133 7.652966524546462 1 0 0
162 2 -0.5291797456370689 15.727403572659238 2.556470488135618 8.264453962521074 0 0 0
2550 2 -0.611337999730997 9.906781444645397 3.7077683163768347 8.025556238374268 0 0 1
322 1 1.094235133888202 11.812512102249963 6.867902853626725 8.76817641876844 0 0 1
2350 1 1.016498452526221 10.404820392935008 7.249957651464985 4.090344516159294 1 0 0
1260 2 -0.5443619604553007 11.487516629065835 6.495988581961314 0.9449664106001538 0 1 1
819 2 -0.5530528336380177 12.486180094443604 0.9378520923425027 2.1562655538074083 0 0 0
2729 2 -0.5410797060685423 14.56842849653114 0.8964109951265465 6.713716719480402 0 1 1
609 2 -0.5682018355041558 13.106827014766006 5.971861702794641 8.970488116467422 -1 0 0
479 2 -0.5247665148801495 10.498063780349401 0.7692025072002504 7.721908056979354 0 2 1
1 1 1.048530378186407 17.53760481507854 5.06600598431991 0.8663088029852617 0 0 1
1735 1 1.090549458113451 14.59753061205021 5.70694023902769 9.055508851374517 0 0 0
2940 2 -0.5280909108348741 17.476095912263837 3.8201807089774937 3.8972647159230758 0 0 1
496 1 1.028830357670883 1.0795557610295998 8.107114199973775 1.9181772239741013 0 0 0
2570 2 -0.5161376549411925 1.7438584855803254 9.461207083281126 7.855189558184875 0 0 0
2652 2 -0.656456940740154 2.7480308570889025 8.13604643794658 2.288935744705883 1 0 1
1057 1 1.051993550999748 3.600480100774003 9.595643236014086 2.458282148313959 0 0 1
2333 2 -0.4536191887104316 7.4734628647534285 9.639154784146596 1.1925313494971284 1 0 0
1129 1 1.049887970079689 8.207524403891647 8.263910722995623 1.6626550232392103 0 -1 1
573 2 -0.561724377831194 2.746061221212307 10.788660812477183 2.0003242771180716 1 0 -1
2047 1 1.070004323451817 2.4082253935869185 12.311559394432907 1.8046223150962553 0 0 0
201 2 -0.5399429221140056 4.963847834951034 9.709571219461118 1.6702813802965197 1 0 1
119 2 -0.5711996659604354 2.283656026355745 13.272211435618344 3.0429218866351246 0 0 1
408 2 -0.5423835467209286 5.440897829670496 8.270206159875471 5.190735094103398 0 0 0
2196 2 -0.5576415237667451 3.9530586191234507 9.624631212391785 3.953265809699566 1 0 0
1821 2 -0.5325047291140452 8.1999314552677 10.278636779244437 4.03500859986713 1 0 1
1607 2 -0.5605381327465415 8.116749487655163 7.796878086627805 6.544524727607744 0 0 0
1777 1 1.013577283864236 3.3455072042275664 9.726788752628158 7.840142543162952 0 0 0
2692 1 1.094019478681562 4.913102524016753 9.663052260402367 5.175335117934318 0 0 0
2424 2 -0.5354329295855271 4.147723799467133 9.434293748839309 6.569284286594924 0 0 0
2166 2 -0.5553855396047448 7.991284743319454 10.332816824437808 6.672752011254707 0 0 0
2209 1 1.076739561381609 8.519526126379718 9.057536260582964 7.392908232568622 0 0 0
291 2 -0.5500280047985359 1.873847405604007 11.899088356565708 6.510951154885037 1 1 1
790 1 1.042404452186019 2.6770325815880023 12.419369382427135 7.745018235675327 1 0 0
2671 1 1.06504859592668 7.622041425761337 11.03632090323088 5.302902238460924 0 0 0
2807 2 -0.5248040760793888 6.082006827590412 10.774857785845033 5.110950757963807 0 1 0
447 2 -0.5176468685714052 8.421074236108911 12.425619476493592 5.108814480804617 1 1 1
1381 1 1.068791269024941 8.943398006100153 13.901842279698315 4.948160700706887 1 0 0
1025 2 -0.606571774426395 3.9356298486808603 11.378098238387295 8.059915024708715 1 1 0
1868 2 -0.5444558621957762 7.903258909472428 8.797797563204293 8.83640940101582 0 0 0
2868 2 -0.5254488839158949 3.068569574874053 13.90887628806103 7.434446766674616 1 0 0
2304 2 -0.5531211605602241 1.6322116256882953 12.315834524664337 8.907247132993156 0 0 1
1698 2 -0.5241998999912045 3.66167622250916 12.882169065737509 1.015642536966697 0 0 0
2369 2 -0.5373452780907212 1.1250572353426347 12.578579586794966 0.9182534621212128 1 0 1
2286 2 -0.5519458115663565 0.643142844464579 10.035446046668842 5.138716106145821 -1 0 1
1643 2 -0.504252311618365 7.072691849113868 7.806301448779249 0.6224177078855604 0 0 0
2016 2 -0.5109612209607632 15.03957413906 7.749361166939498 5.496950989881343 0 0 0
2658 2 -0.538384232684168 13.2586856851814 8.28131256692233 2.0158910379659805 0 0 1
115 1 1.064539857806405 13.897689798649257 9.591688669338087 2.6554264828586644 0 0 1
2516 2 -0.5491115782404875 15.407164148222414 9.88603575802029 2.3406931856829796 0 0 0
2684 2 -0.5390409556417827 10.290072048738104 10.826247450870868 2.4036739956265136 0 0 1
1270 1 1.069046995972926 11.551605176363383 11.574492492924868 1.8705837655203628 0 0 1
2633 2 -0.552504866923579 11.640594200656645 13.104658672661841 2.298894636929939 1 0 1
491 2 -0.5232723377821968 12.888297519956911 10.792183112744912 2.209690489470795 0 0 0
1657 1 1.069494089458878 16.776821450571177 10.666544446509857 2.5560236397198834 0 0 0
990 2 -0.4817584923040414 10.766983551017107 7.95753178717947 5.400390431899223 0 0 0
2685 2 -0.5815387409178757 9.756009341079992 8.347669883037305 3.0175431615628243 0 0 1
769 1 1.025045775251586 9.62705441845368 9.909089908650598 3.461032452211614 0 1 0
2766 2 -0.5199153291578792 10.60070490398292 9.930805668809642 4.718980295306662 1 0 1
324 2 -0.5251914651835885 13.771617067322856 9.40020811840228 4.19949959581167 0 0 0
1368 2 -0.5137230762767754 16.65948367175914 11.480845559214599 3.9463618495926998 0 0 0
1332 2 -0.5240023992845596 10.043174612757634 9.132116914166991 7.289588498632645 0 0 1
310 1 1.092674619552677 11.145737358131143 9.494161642693125 6.179060285701233 1 0 1
2942 2 -0.4967955006638549 12.810056765863331 9.34811127023596 6.241008023227273 0 0 1
2161 1 1.099311340104929 14.350817541434854 9.226877029440548 5.70594685847626 1 1 1
11 2 -0.4660781789218003 14.400646989206516 8.841833891848037 7.383490402264891 0 0 0
783 2 -0.5393137545873843 15.451137806130776 10.405361369236587 5.8558865911311795 0 0 0
947 2 -0.5097473242777553 11.172040628376473 11.018519723651607 6.769312841127501 0 0 0
580 1 1.063965656324255 11.742611560559938 11.911923553347268 7.9153896063056335 1 1 1
2077 1 1.105095759802195 16.58654308409067 11.430567059831303 5.501529662759214 0 0 0
966 2 -0.5177687268693985 16.154618501587798 12.879227216499292 5.848935644174728 0 0 0
1923 2 -0.5426479140600822 11.84270264587269 13.426448493677063 7.4440824549317925 0 0 0
1631 2 -0.5252847503564495 12.287463370685856 8.354555120085076 8.633173164313037 0 0 1
2899 1 1.088203316629769 13.452357629466452 9.463759280388402 8.527114502807198 0 0 1
2102 2 -0.511444466526818 12.934060843617951 10.904401602345539 8.414352645132873 1 0 0
71 2 -0.513887491583201 17.306324489246567 11.60552256827229 1.4001742588220418 0 1 1
1937 2 -0.5302959335409253 9.458189633643636 7.876901253297711 0.7110323353344097 1 0 0
1995 2 -0.5318387568546346 0.9751788512721626 16.506100710049555 0.67433207000905 1 -1 0
499 1 1.070566352029548 1.3547699657410672 16.940016425012182 2.101434967691054 0 0 1
2456 2 -0.5545527247700287 5.556047557662726 17.084886164079162 1.911861810782213 0 0 1
534 2 -0.5302297527109892 2.4810601289635454 18.042257233236867 2.037816547128845 0 0 0
2117 2 -0.5349138362215784 3.7011905353863064 20.240272450228673 2.315127786402047 1 0 0
73 1 1.070544368722076 5.154269319014241 20.497004287827554 1.745265733627211 0 1 0
471 2 -0.5489074437123318 8.419396582317246 20.020189502321614 2.8215625261808346 0 -1 0
1093 1 1.109416736952184 1.693115387470948 14.457293691207536 3.785402822068831 0 0 0
2511 2 -0.5204895689521699 2.2978788959321337 14.648959436483391 5.2440558168187765 1 0 1
147 2 -0.5122513284031454 7.446792516080983 14.522961429247822 4.941958610266342 0 0 0
1697 2 -0.5610603202261202 1.7753364389314275 15.850188017639685 3.1122023818607825 0 0 0
2245 1 1.073935451589336 5.395802433574742 17.406962946455423 3.391028741990449 1 0 1
1060 1 1.06365874234059 6.1135963067349195 15.293707082847291 5.302516824453155 0 0 0
1014 2 -0.5147974132120872 5.487820943934871 15.9687012400541 4.021052848174682 0 0 0
1298 2 -0.6267040218316622 1.608137066922519 19.603876373390264 4.021461946483164 0 0 0
2911 1 1.003459108414838 3.0042495022715068 19.09772620382608 3.1229906665444234 1 0 0
621 2 -0.5507560697320507 4.078927553044515 18.20869530713987 3.8239603406447826 0 0 0
1586 2 -0.5509371403368206 6.6708783282628845 18.214689711976174 3.8558601325895765 0 0 1
430 1 1.087504172339943 7.272548695187641 19.65789259399964 3.7828781656187274 0 1 0
2055 2 -0.5515976626283764 7.459863170012909 20.25142895249917 5.251506995102291 1 0 1
2074 1 0.9859716896566929 1.2710347642163153 20.120212352671917 5.58543809912217 1 0 0
287 2 -0.5395136025667125 6.146134795577561 20.301343280847988 2.9451843185433124 1 0 1
2316 2 -0.5247589836778277 4.807155749480391 14.588771942708666 5.8082630873694825 0 0 1
421 1 1.093158292746969 3.38365186985958 14.974883857461698 6.323635754248721 0 0 0
2481 2 -0.530488436003036 1.191875237819883 17.06212453577663 7.550865448903213 1 0 0
1671 2 -0.5419068066131749 3.252682028918094 16.508311109202925 6.648782132260931 1 0 1
1251 2 -0.534693554712482 6.473192813971878 16.385410338303153 6.417093186372467 0 0 1
2179 1 1.034433813049058 6.756076438885197 16.100787639662528 7.936471311095823 0 0 1
2959 1 1.083273230350775 2.493312883337908 17.761541153292324 7.266942504106052 1 0 0
804 2 -0.5631820776066092 2.0686136599064704 19.089414160843344 6.502130938133601 1 0 0
136 1 1.08444696970234 8.095205354774043 20.423152646087424 6.663826931143981 1 1 1
1049 2 -0.5333929774310362 6.864569071848828 14.526887434531742 7.990452352067496 0 0 1
1134 2 -0.5378339756035226 5.377185880056295 16.566747746113208 8.701369735359231 0 0 0
2463 2 -0.5559458816350297 8.008534469381228 16.773674953370524 8.59616014580591 0 0 1
176 2 -0.533999342810285 3.149300461925754 17.83681169716362 8.676304962858874 0 -1 0
191 2 -0.5486524795807688 8.240030182310958 19.04566690957488 7.476033029819628 0 -1 0
1237 1 1.08655303061742 8.547061965093341 18.215478892771376 8.746622174060406 1 0 0
2555 2 -0.5354626602174039 9.839145795541278 14.231302225011962 3.648113125590534 0 0 0
1379 2 -0.548329905940787 9.73924591962864 14.34488756721336 6.212643553988057 0 0 1
583 1 1.099210938978156 15.821471942186491 14.392315903584239 5.6826186174339615 0 0 0
1451 2 -0.559653279893748 15.15675215867075 16.23748349572467 1.036296484130938 1 -1 0
2359 1 1.060356439152165 16.44947871334746 15.310141260931731 0.9779843886863826 0 0 0
661 1 1.002365743354414 11.181512868354215 14.528205856138861 2.7925399455652493 1 1 1
224 2 -0.6019985230814827 11.041863478559687 15.875698827424356 1.717900697910976 1 0 0
1548 2 -0.5191768364499412 12.853858524327999 17.53062351246711 1.0172497408041596 0 0 1
1711 1 1.083439556236871 14.432355003725203 17.582216447406175 1.0785830323252434 0 -1 1
2839 1 1.031536257144502 11.362390634553169 17.499498286311326 1.487167225676791 0 0 1
1533 2 -0.5292716648219657 11.448010686077087 18.391953503975135 2.8921424897247845 0 0 1
1380 2 -0.5391646483228579 14.628294430134074 18.183245732475527 2.5193037128172575 1 0 0
930 2 -0.5178633995897058 14.392970509282403 20.150521350580213 1.182556318892312 0 0 0
1992 2 -0.5148282184840558 12.971299494895387 20.413348086021113 3.11571097938302 0 0 0
1934 2 -0.5410676140331783 12.490413499400514 14.99910935049918 3.5348116231105147 1 -1 0
2237 2 -0.5491473735368716 14.305967217274468 14.494135517426285 5.349679341229347 1 0 0
1967 2 -0.5114982919308371 16.816978392251134 14.985204463409797 4.647210003795369 0 0 1
1960 1 1.08323712644266 13.151796281674356 15.446170606627389 4.895789191997795 0 0 1
1196 2 -0.5530584411195356 13.773203497831142 16.855932453736447 4.612746012868489 0 -1 1
1022 2 -0.5420182923552375 16.217359464934642 17.07576379626658 4.1177900853847 0 0 1
2782 1 1.061536370430518 11.729014816888233 19.721974876048918 3.7263328952420354 0 0 0
1552 1 1.062351768843982 14.838373845437562 17.829137218858094 4.025771337574294 0 0 0
459 2 -0.5375774967001168 15.098438208654521 18.96513415890382 5.08982782014012 0 0 1
78 2 -0.5085161466808059 11.721586891041976 19.792142560677597 5.327876220882312 0 0 1
1165 1 1.072896962739105 11.110225973056856 14.722178618368979 6.952956510570195 0 0 0
2210 2 -0.5643067791182088 12.083737697987418 15.450564746866451 6.0036694744244175 1 0 0
398 2 -0.5175445502291824 16.01951048615901 15.220070629413232 7.020195232493434 0 0 0
751 1 1.11539447298785 16.38637879264776 16.57544045260284 7.731622778826819 0 0 0
2061 2 -0.5493387100912093 16.678585730466242 17.70997423200182 6.722705522106596 0 0 1
2392 1 1.077599360187819 16.35522531417353 19.06846080530681 6.006099136202621 0 0 0
1169 2 -0.5338873418144913 15.971377767335031 20.055182368780173 7.178456622122474 0 0 1
1724 2 -0.5267459671367167 10.861890791904688 15.791087526980997 8.120496860536967 0 0 1
2175 2 -0.5536492122913743 15.013343347066293 16.99882158552411 8.319867920996746 0 0 0
2243 2 -0.5461285951030842 13.846797091721868 19.419528873410396 8.535386473481088 0 0 0
2842 1 1.013450265315798 13.001722588682378 20.724029243018947 8.784662446240953 0 0 0
2190 2 -0.4693465708543226 17.130032196887058 15.041884265953938 2.4328096770731635 0 0 0
923 2 -0.5384514071887958 10.436865155028368 20.76159362701354 1.135040902701363 0 -1 -1
1878 2 -0.564671021118143 11.845997999187261 20.72493412380913 7.822344969277884 0 0 0
1955 2 -0.5250895340424053 10.081596765566438 18.069361986980585 8.947955457262598 0 0 0
1759 1 1.07205723449792 11.161973620584735 20.871429105058493 6.405297419004999 0 0 0
116 2 -0.5396668233068119 9.592126254911832 20.867233823023714 6.530417115812768 0 0 1
2934 2 -0.5103235274107639 10.620923963633885 20.814131913506053 3.4672668575964574 1 1 0
1663 1 1.104331677056856 17.406148394791156 16.070929795108178 3.6218089579368895 0 0 1
1120 1 1.110927469250036 14.045305741549239 17.949646392288408 9.007668824455928 0 0 0
1394 2 -0.4872668102211846 4.309772053423705 26.578303920264517 0.6736494607455803 1 0 0
960 2 -0.5444596498780204 7.180341398515978 21.125574941990145 7.752132038658729 0 0 0
498 2 -0.4741230159988943 5.2586239620264505 22.05650012121966 1.3353987785834347 0 0 1
2446 1 1.042852454519246 1.4389585477135842 23.388301457884953 2.066422954092304 1 -1 0
1392 2 -0.5388871655843144 2.775893905369397 22.906139337657827 1.4090143436166056 0 -1 0
1255 1 1.080691767053951 4.216350192227176 23.179346529391665 0.8672395480521233 1 0 0
1384 1 1.071364400040136 8.685224807877635 24.011163755149123 2.6600484382630465 0 0 1
474 2 -0.5051022981638569 4.755019635446346 24.533872305212533 1.3025419767931494 1 0 1
2562 2 -0.5338482015558983 3.0577885998380965 25.953255050991796 2.8022946321847693 0 0 0
898 1 1.101413079355744 4.5680188726150295 25.969788542383608 2.154892678637489 0 0 1
2487 2 -0.5494481124280582 8.209996341117407 24.983269686477758 1.526037064709688 0 0 1
1420 1 1.013013643293462 1.0067088920837828 23.1397438911428 4.894222923221593 0 0 0
278 2 -0.6354400139563582 1.7693763855726894 23.854135944096406 3.6525195003269064 1 0 1
2565 2 -0.522860182781805 7.772721686063211 24.59310961633715 3.8226922890831143 0 -1 1
2368 1 1.031013762234835 2.2920379858447393 25.538526831776505 4.058998313882569 1 0 0
285 2 -0.5516429364443327 3.2650681492250277 25.74605076498681 5.2425390570823485 -1 0 0
2945 2 -0.5017017064665129 5.673210526866737 25.770006621421203 3.3917586322458035 1 -1 1
2677 1 1.090791137804192 6.907731862773338 25.826125116331024 4.285389331823223 0 0 1
35 2 -0.5633715039049486 7.791656548161632 27.098863115787108 4.171584899724346 1 0 0
1125 2 -0.5388434968749998 1.1078355201114407 26.616402536493986 4.310334768453217 1 0 0
2510 2 -0.5346419961299168 1.4913262774058147 21.686398838725204 5.410988747479941 0 0 1
578 2 -0.5518210446794247 1.2894095693797556 24.273697723351823 5.967738783696016 0 -1 0
2953 1 1.05553573603875 1.4644245054501486 24.949903201653942 7.405198221455321 0 0 0
2265 2 -0.5170713592074867 2.552779258594623 26.05269411487258 7.480069577296037 1 0 0
1796 2 -0.4749281744924966 4.941206318723824 26.595341393403718 7.090764857974367 0 0 0
1687 1 1.068843670906287 3.5497478111632943 26.715594323217537 6.406416658442747 1 0 0
1211 2 -0.5105795484853219 6.467879344356829 25.760425968165503 5.799768486619091 0 0 0
595 1 1.097276751232747 6.53537048620742 26.188404928297466 7.3712611565507915 1 0 1
1500 2 -0.5385841122314795 1.4388689373455774 23.654802613384348 8.3358140210176 1 0 1
2499 2 -0.4834634354611368 7.030138826842008 24.761636164286724 8.129423857713661 0 -1 1
1556 2 -0.5499386799794077 8.885563145409266 22.490804540652267 2.5037160172279593 1 1 0
1805 2 -0.474946476905365 5.342206943929735 27.44732183601967 2.2486624025976267 0 -1 0
1356 2 -0.4630646010737708 7.687933753618202 27.357275159972886 7.4407161807323545 1 0 0
2291 2 -0.4914706803083444 6.213543468319342 26.63701473071524 8.914225298287578 0 0 0
144 2 -0.5427014252508557 0.8544570743520767 24.55914925608033 1.2539962273860568 0 -1 0
1375 1 0.9223859553821081 6.287824585174251 21.43776699844804 9.035041584264981 0 0 1
2236 1 1.085307080059893 9.506979335253009 21.075444121724185 2.3714686843048773 1 -1 1
511 1 1.057266709244999 13.791501684468175 21.289714125269725 2.0692318666687917 0 0 0
2741 2 -0.5288492707665918 14.810475148282835 22.209332845129406 2.8124481160759576 1 -1 0
1173 2 -0.5694670014749293 14.571332223147897 24.831524090386576 3.077106205949761 0 -1 1
2234 2 -0.5542523497724973 16.39588605541832 25.110342608849976 1.4806547108616304 1 0 0
482 2 -0.5778841400724498 9.736372935266848 26.938405070219158 1.2836050976073121 1 0 1
818 2 -0.5207241308171098 11.738120454738068 26.292296938456236 2.6669637865340032 0 0 0
1099 1 1.108221876367554 15.13717421679643 25.783304621454498 2.094338182464833 0 0 1
440 2 -0.5179893834079655 15.389534352666281 27.180375527450202 2.772325332201183 1 0 1
316 1 1.068009174286457 11.266021126387034 27.256017365079686 1.5358339579582148 0 -1 0
713 2 -0.5343626735116349 10.131280675765932 24.54073889520379 3.267600321559701 0 0 0
654 2 -0.514813336375108 11.673571421347782 24.829534392073086 5.099979123066951 1 -1 0
2765 2 -0.5511997209835381 13.295320902840205 23.065945394272106 4.428208169859067 0 0 1
1318 1 1.083342531403706 14.658580104531543 23.47592402499128 3.8424450083469046 0 0 0
1986 2 -0.5743750913873735 15.703938183040837 23.492604192631223 4.949924203887388 0 0 0
928 1 1.084276055819201 16.87720488925011 23.101112595611806 5.854339755681946 0 0 0
1635 2 -0.5468697568069076 10.35012541332427 26.824592491752615 4.621753780405703 1 0 0
1948 1 1.089828877002538 10.981983566232719 25.627343863210747 3.9199773716779647 0 0 0
2326 1 1.060632323969722 15.750076835542684 21.258053030432915 8.10929784339979 1 1 0
1415 2 -0.5169410715004215 11.57400540346992 22.262071323220088 5.7672506896824265 0 0 1
922 1 1.085585878688238 12.439430212938474 23.573318681447496 5.596475726548984 0 0 0
936 2 -0.5219226857804535 13.323649711255932 23.891062903743798 6.882573304262807 0 -1 0
1127 2 -0.5476691678127532 16.457499412884836 22.357783052162503 7.216195478668805 0 -1 -1
974 2 -0.6592889382796098 14.20404742759824 21.808935145174043 8.30797268674566 1 0 0
1729 1 1.02105219661944 13.742773086839689 23.414353594537193 8.354951119750552 0 0 0
1095 2 -0.5213414453587266 12.978111275199604 22.112703089028933 0.9429271019447284 1 0 1
1539 2 -0.4917389712726862 14.107309250839467 25.791950172572804 0.8593181184507538 0 -1 1
1064 2 -0.541911894914779 1.3290854724580146 34.07462622147588 6.5663627859304725 0 -1 0
28 1 1.10783999944041 5.467346524528924 28.968836948864297 2.6311259172912993 1 -1 1
1840 1 1.122131112119623 1.4670376403123684 32.28360683338019 1.709769084995124 0 -1 1
2931 2 -0.559131328182671 4.295712152892794 29.52574096101114 1.8372682552675255 1 -1 0
518 2 -0.554472441538856 6.777785544035818 29.733097292209855 2.205917630127388 0 0 0
1398 2 -0.4880780358073827 7.4095565858436805 31.93945405457177 1.0950199611768197 0 1 1
1084 1 1.09118393789588 7.8335464075248975 30.878467341971284 2.149266873510852 1 0 1
1659 2 -0.5192891717112598 2.6669174131463844 33.26070135200827 1.2309054991931405 0 -1 1
1815 2 -0.4881386969938061 6.820130978045553 34.15330794554383 1.9359428925988773 0 0 0
230 2 -0.5790552570238231 5.1271656734092135 29.078037589917173 4.128185930492041 0 -1 0
2122 1 1.113403001464762 4.193864789687633 29.52752082481736 5.21454686853622 1 0 1
2257 1 1.067194839243841 1.7197393920098918 31.17679921891849 4.548437783872872 0 0 1
1509 2 -0.5048711281669547 1.1963699396246024 31.65470011707596 3.1593015354725975 1 -1 0
1020 2 -0.5589851491706213 3.0075160213691237 30.29573482103087 4.587820899790862 0 0 0
2528 2 -0.507636317546331 7.7840791331418 31.609860444278638 3.5126091625725326 0 -1 0
1781 2 -0.5133135960097887 2.0047702999768093 32.72158462198408 4.7876056177545046 0 0 1
2411 2 -0.5139159776825712 8.079358673602066 33.804243490192064 4.192021631547642 0 -1 1
1690 1 1.10465962819507 8.375399289710908 32.39786851423551 4.836348080974811 0 -1 0
2598 2 -0.5385483183402704 3.5983770407893356 28.258945624262612 5.896948996314475 0 0 1
2860 1 1.088512157402768 8.308378414596572 28.87766306104167 7.73730176078645 0 -1 0
1511 2 -0.5419382513426741 5.0650547715920355 30.44287496867423 6.184321334105832 0 0 0
1269 2 -0.5396375700693117 7.119625685847132 29.968632067042606 7.604688999485343 1 0 0
817 1 1.066630929473345 6.347528161826402 31.105566370696224 6.834758812134959 1 0 1
2252 2 -0.5429789189602602 7.3621255227409685 31.925106214415468 5.913476268524582 0 0 1
2048 2 -0.5073644129831126 5.816746594331385 32.34315001704019 7.659500326870705 1 0 0
2281 1 1.066897765537329 2.549953958086708 33.95100526052751 5.560302919167303 0 -1 1
705 2 -0.5405444807175103 3.9427244153429575 33.42314040184462 6.124991657699174 1 0 0
823 1 1.088663653800218 4.916155140730095 33.60077408920512 7.328669721011782 1 0 1
1203 2 -0.5529556636936067 4.061477653521379 33.81527557059313 8.586629218152847 0 -1 0
1985 2 -0.4742432956176638 2.2534427892134854 30.84429480192637 1.2928982460048872 1 0 0
1943 2 -0.4391932590229002 8.904763784977199 28.372514387091247 6.1637532811649995 0 0 0
1447 1 1.045129841327222 3.3169955890578353 29.89941045446414 0.7103539926495633 0 0 1
596 2 -0.5252921834128172 16.43666367966722 31.276897130883306 0.8199585553887377 -1 0 1
1825 1 1.071202727837864 9.123142058578695 27.803980012811362 4.701776160111929 0 0 0
2452 1 1.075422891536102 13.307650640967847 34.470187098895266 5.826527885326329 0 0 1
2918 2 -0.5060542128436041 9.829694317394729 33.003366273350906 5.800070078948917 1 0 1
740 2 -0.5212620935329794 9.338882573439061 30.578057318410707 1.8995251029095221 0 0 0
1212 2 -0.507660528667421 11.404344548687344 28.720542024453067 2.0422594957305256 1 0 0
1572 2 -0.5076658670463731 16.572540315691896 29.533376923581343 2.745335355853947 -1 -1 0
2863 1 1.064534488953591 16.53182094984701 28.09427801881415 3.3745182864566625 -1 -1 0
1762 1 1.08984108309366 16.97958087689135 30.995454408153112 2.254252452041812 0 0 1
695 2 -0.5128539332787916 13.055589133062847 32.392355001350495 1.3689405675850272 0 0 1
1480 1 1.064334737987143 13.083003655256698 33.44196434641964 2.644665831426312 0 0 1
33 2 -0.5676869825445016 9.519191860752533 28.926488383578373 3.7487666762784486 0 -1 1
142 1 1.044908438870959 10.432084319649618 29.759624424812753 2.790739095166566 0 0 0
1727 2 -0.5132232548643073 16.699254396698006 28.103767930948894 5.001055808223214 1 0 0
51 2 -0.4878931266805742 11.556462886247633 30.57799006718582 3.605838642320268 0 -1 -1
2695 1 1.053784218425686 11.32911390335213 31.77273380067803 4.597350985304937 0 0 0
2255 2 -0.5045469097222124 15.711871051180989 32.42054733231944 5.468482949175487 0 0 1
542 2 -0.5262767463901408 16.065160177743845 31.87898490857607 3.1207095732010037 0 0 0
2282 2 -0.4969433473538554 9.812653491123712 31.775962556632095 4.21011653360398 0 -1 0
2756 2 -0.5268198011364033 12.301399266279832 32.93739139280075 3.9041516123563884 1 -1 0
2253 2 -0.4550122985282259 14.231965483383048 33.84583845259449 4.692252072335672 0 -1 1
2348 2 -0.4549596474093209 14.629480023882515 33.6602110861496 2.795945613870485 1 0 1
1468 1 1.065846820744935 15.713824260639814 33.146757371634735 4.013065016663843 0 0 0
126 2 -0.4995842409499001 17.117083775557674 34.11622955495349 4.161771067647548 0 0 1
2096 2 -0.5074866235821133 12.349584092208936 29.74320597470817 7.943038231728202 0 0 1